
     Program PROJWFC v.6.2 starts on 16Apr2019 at 11: 3:26 

     This program is part of the open-source Quantum ESPRESSO suite
     for quantum simulation of materials; please cite
         "P. Giannozzi et al., J. Phys.:Condens. Matter 21 395502 (2009);
         "P. Giannozzi et al., J. Phys.:Condens. Matter 29 465901 (2017);
          URL http://www.quantum-espresso.org", 
     in publications or presentations arising from this work. More details at
     http://www.quantum-espresso.org/quote

     Parallel version (MPI), running on    16 processors

     MPI processes distributed on     1 nodes
     R & G space division:  proc/nbgrp/npool/nimage =      16

     Reading data from directory:
     ./tmp/scf.save/

     IMPORTANT: XC functional enforced from input :
     Exchange-correlation      = PBE ( 1  4  3  4 0 0)
     Any further DFT definition will be discarded
     Please, verify this is what you really want

 
     Parallelization info
     --------------------
     sticks:   dense  smooth     PW     G-vecs:    dense   smooth      PW
     Min          29      29      9                  420      420      70
     Max          31      31     10                  421      421      72
     Sum         475     475    151                 6735     6735    1139
 

     WARNING: hubbard_l =  1 is set

     Gaussian broadening (read from input): ngauss,degauss=   0    0.003675


     Calling pprojwave .... 
 
  Problem Sizes 
  natomwfc =            8
  nbnd     =           16
  nkstot   =           51
  npwx     =           59
  nkb      =           16
 

     Atomic states used for projection
     (read from pseudopotential files):

     state #   1: atom   1 (Ge ), wfc  1 (l=0 m= 1)
     state #   2: atom   1 (Ge ), wfc  2 (l=1 m= 1)
     state #   3: atom   1 (Ge ), wfc  2 (l=1 m= 2)
     state #   4: atom   1 (Ge ), wfc  2 (l=1 m= 3)
     state #   5: atom   2 (Ge ), wfc  1 (l=0 m= 1)
     state #   6: atom   2 (Ge ), wfc  2 (l=1 m= 1)
     state #   7: atom   2 (Ge ), wfc  2 (l=1 m= 2)
     state #   8: atom   2 (Ge ), wfc  2 (l=1 m= 3)

 k =  -0.0887063536 -0.0887063536  0.0887063536
     e =    -5.12454 eV
     psi = 0.388*[#   1]+0.388*[#   5]+0.037*[#   2]+0.037*[#   3]+0.037*[#   4]+
          +0.037*[#   6]+0.037*[#   7]+0.037*[#   8]+
    |psi|^2 = 0.998
     e =    -3.11690 eV
     psi = 0.137*[#   1]+0.137*[#   5]+0.119*[#   2]+0.119*[#   3]+0.119*[#   4]+
          +0.119*[#   6]+0.119*[#   7]+0.119*[#   8]+
    |psi|^2 = 0.989
     e =     4.08514 eV
     psi = 0.166*[#   2]+0.166*[#   3]+0.166*[#   4]+0.166*[#   6]+0.166*[#   7]+
          +0.166*[#   8]+
    |psi|^2 = 0.997
     e =     4.08514 eV
     psi = 0.166*[#   2]+0.166*[#   3]+0.166*[#   4]+0.166*[#   6]+0.166*[#   7]+
          +0.166*[#   8]+
    |psi|^2 = 0.997
     e =     5.86338 eV
     psi = 0.349*[#   1]+0.349*[#   5]+0.046*[#   2]+0.046*[#   3]+0.046*[#   4]+
          +0.046*[#   6]+0.046*[#   7]+0.046*[#   8]+
    |psi|^2 = 0.977
     e =     9.52332 eV
     psi = 0.140*[#   2]+0.140*[#   3]+0.140*[#   4]+0.140*[#   6]+0.140*[#   7]+
          +0.140*[#   8]+
    |psi|^2 = 0.840
     e =     9.52332 eV
     psi = 0.140*[#   2]+0.140*[#   3]+0.140*[#   4]+0.140*[#   6]+0.140*[#   7]+
          +0.140*[#   8]+
    |psi|^2 = 0.840
     e =    13.21360 eV
     psi = 0.015*[#   2]+0.015*[#   3]+0.015*[#   4]+0.015*[#   6]+0.015*[#   7]+
          +0.015*[#   8]+0.014*[#   1]+0.014*[#   5]+
    |psi|^2 = 0.117
     e =    16.69691 eV
     psi = 0.010*[#   1]+0.010*[#   5]+
    |psi|^2 = 0.021
     e =    17.11073 eV
     psi = 0.114*[#   2]+0.114*[#   3]+0.114*[#   4]+0.114*[#   6]+0.114*[#   7]+
          +0.114*[#   8]+0.094*[#   1]+0.094*[#   5]+
    |psi|^2 = 0.872
     e =    17.43725 eV
     psi = 0.023*[#   2]+0.023*[#   3]+0.023*[#   4]+0.023*[#   6]+0.023*[#   7]+
          +0.023*[#   8]+
    |psi|^2 = 0.135
     e =    17.43725 eV
     psi = 0.023*[#   2]+0.023*[#   3]+0.023*[#   4]+0.023*[#   6]+0.023*[#   7]+
          +0.023*[#   8]+
    |psi|^2 = 0.135
     e =    18.48986 eV
     psi = 
    |psi|^2 = 0.001
     e =    18.48986 eV
     psi = 
    |psi|^2 = 0.001
     e =    25.19594 eV
     psi = 0.002*[#   1]+0.002*[#   5]+
    |psi|^2 = 0.009
     e =    26.80079 eV
     psi = 0.004*[#   1]+0.004*[#   5]+
    |psi|^2 = 0.012

 k =  -0.0844822415 -0.0844822415  0.0844822415
     e =    -5.18284 eV
     psi = 0.382*[#   1]+0.382*[#   5]+0.039*[#   2]+0.039*[#   3]+0.039*[#   4]+
          +0.039*[#   6]+0.039*[#   7]+0.039*[#   8]+
    |psi|^2 = 0.998
     e =    -3.03966 eV
     psi = 0.144*[#   1]+0.144*[#   5]+0.117*[#   2]+0.117*[#   3]+0.117*[#   4]+
          +0.117*[#   6]+0.117*[#   7]+0.117*[#   8]+
    |psi|^2 = 0.989
     e =     4.09036 eV
     psi = 0.166*[#   2]+0.166*[#   3]+0.166*[#   4]+0.166*[#   6]+0.166*[#   7]+
          +0.166*[#   8]+
    |psi|^2 = 0.996
     e =     4.09036 eV
     psi = 0.166*[#   2]+0.166*[#   3]+0.166*[#   4]+0.166*[#   6]+0.166*[#   7]+
          +0.166*[#   8]+
    |psi|^2 = 0.996
     e =     5.86871 eV
     psi = 0.349*[#   1]+0.349*[#   5]+0.047*[#   2]+0.047*[#   3]+0.047*[#   4]+
          +0.047*[#   6]+0.047*[#   7]+0.047*[#   8]+
    |psi|^2 = 0.978
     e =     9.52556 eV
     psi = 0.140*[#   2]+0.140*[#   3]+0.140*[#   4]+0.140*[#   6]+0.140*[#   7]+
          +0.140*[#   8]+
    |psi|^2 = 0.841
     e =     9.52556 eV
     psi = 0.140*[#   2]+0.140*[#   3]+0.140*[#   4]+0.140*[#   6]+0.140*[#   7]+
          +0.140*[#   8]+
    |psi|^2 = 0.841
     e =    13.22034 eV
     psi = 0.015*[#   2]+0.015*[#   3]+0.015*[#   4]+0.015*[#   6]+0.015*[#   7]+
          +0.015*[#   8]+0.015*[#   1]+0.015*[#   5]+
    |psi|^2 = 0.120
     e =    16.35963 eV
     psi = 0.041*[#   1]+0.041*[#   5]+0.040*[#   2]+0.040*[#   3]+0.040*[#   4]+
          +0.040*[#   6]+0.040*[#   7]+0.040*[#   8]+
    |psi|^2 = 0.322
     e =    17.23475 eV
     psi = 0.020*[#   2]+0.020*[#   3]+0.020*[#   4]+0.020*[#   6]+0.020*[#   7]+
          +0.020*[#   8]+
    |psi|^2 = 0.118
     e =    17.23475 eV
     psi = 0.020*[#   2]+0.020*[#   3]+0.020*[#   4]+0.020*[#   6]+0.020*[#   7]+
          +0.020*[#   8]+
    |psi|^2 = 0.118
     e =    17.43823 eV
     psi = 0.074*[#   2]+0.074*[#   3]+0.074*[#   4]+0.074*[#   6]+0.074*[#   7]+
          +0.074*[#   8]+0.063*[#   1]+0.063*[#   5]+
    |psi|^2 = 0.567
     e =    18.71377 eV
     psi = 0.003*[#   2]+0.003*[#   3]+0.003*[#   4]+0.003*[#   6]+0.003*[#   7]+
          +0.003*[#   8]+
    |psi|^2 = 0.018
     e =    18.71377 eV
     psi = 0.003*[#   2]+0.003*[#   3]+0.003*[#   4]+0.003*[#   6]+0.003*[#   7]+
          +0.003*[#   8]+
    |psi|^2 = 0.018
     e =    24.90516 eV
     psi = 0.003*[#   1]+0.003*[#   5]+
    |psi|^2 = 0.008
     e =    27.11190 eV
     psi = 0.003*[#   1]+0.003*[#   5]+
    |psi|^2 = 0.013

 k =  -0.0802581295 -0.0802581295  0.0802581295
     e =    -5.33462 eV
     psi = 0.369*[#   1]+0.369*[#   5]+0.043*[#   2]+0.043*[#   3]+0.043*[#   4]+
          +0.043*[#   6]+0.043*[#   7]+0.043*[#   8]+
    |psi|^2 = 0.998
     e =    -2.83094 eV
     psi = 0.158*[#   1]+0.158*[#   5]+0.113*[#   2]+0.113*[#   3]+0.113*[#   4]+
          +0.113*[#   6]+0.113*[#   7]+0.113*[#   8]+
    |psi|^2 = 0.990
     e =     4.10612 eV
     psi = 0.166*[#   2]+0.166*[#   3]+0.166*[#   4]+0.166*[#   6]+0.166*[#   7]+
          +0.166*[#   8]+
    |psi|^2 = 0.996
     e =     4.10612 eV
     psi = 0.166*[#   2]+0.166*[#   3]+0.166*[#   4]+0.166*[#   6]+0.166*[#   7]+
          +0.166*[#   8]+
    |psi|^2 = 0.996
     e =     5.88470 eV
     psi = 0.347*[#   1]+0.347*[#   5]+0.047*[#   2]+0.047*[#   3]+0.047*[#   4]+
          +0.047*[#   6]+0.047*[#   7]+0.047*[#   8]+
    |psi|^2 = 0.978
     e =     9.53204 eV
     psi = 0.141*[#   2]+0.141*[#   3]+0.141*[#   4]+0.141*[#   6]+0.141*[#   7]+
          +0.141*[#   8]+
    |psi|^2 = 0.843
     e =     9.53204 eV
     psi = 0.141*[#   2]+0.141*[#   3]+0.141*[#   4]+0.141*[#   6]+0.141*[#   7]+
          +0.141*[#   8]+
    |psi|^2 = 0.843
     e =    13.23993 eV
     psi = 0.016*[#   2]+0.016*[#   3]+0.016*[#   4]+0.016*[#   6]+0.016*[#   7]+
          +0.016*[#   8]+0.016*[#   1]+0.016*[#   5]+
    |psi|^2 = 0.130
     e =    15.87615 eV
     psi = 0.055*[#   1]+0.055*[#   5]+0.054*[#   2]+0.054*[#   3]+0.054*[#   4]+
          +0.054*[#   6]+0.054*[#   7]+0.054*[#   8]+
    |psi|^2 = 0.436
     e =    16.84503 eV
     psi = 0.017*[#   2]+0.017*[#   3]+0.017*[#   4]+0.017*[#   6]+0.017*[#   7]+
          +0.017*[#   8]+
    |psi|^2 = 0.103
     e =    16.84503 eV
     psi = 0.017*[#   2]+0.017*[#   3]+0.017*[#   4]+0.017*[#   6]+0.017*[#   7]+
          +0.017*[#   8]+
    |psi|^2 = 0.103
     e =    17.88820 eV
     psi = 0.058*[#   2]+0.058*[#   3]+0.058*[#   4]+0.058*[#   6]+0.058*[#   7]+
          +0.058*[#   8]+0.049*[#   1]+0.049*[#   5]+
    |psi|^2 = 0.444
     e =    19.17059 eV
     psi = 0.005*[#   2]+0.005*[#   3]+0.005*[#   4]+0.005*[#   6]+0.005*[#   7]+
          +0.005*[#   8]+
    |psi|^2 = 0.031
     e =    19.17059 eV
     psi = 0.005*[#   2]+0.005*[#   3]+0.005*[#   4]+0.005*[#   6]+0.005*[#   7]+
          +0.005*[#   8]+
    |psi|^2 = 0.031
     e =    24.34556 eV
     psi = 0.003*[#   1]+0.003*[#   5]+
    |psi|^2 = 0.007
     e =    26.98717 eV
     psi = 
    |psi|^2 = 0.001

 k =  -0.0760340174 -0.0760340174  0.0760340174
     e =    -5.53680 eV
     psi = 0.358*[#   1]+0.358*[#   5]+0.047*[#   2]+0.047*[#   3]+0.047*[#   4]+
          +0.047*[#   6]+0.047*[#   7]+0.047*[#   8]+
    |psi|^2 = 0.997
     e =    -2.53351 eV
     psi = 0.171*[#   1]+0.171*[#   5]+0.108*[#   2]+0.108*[#   3]+0.108*[#   4]+
          +0.108*[#   6]+0.108*[#   7]+0.108*[#   8]+
    |psi|^2 = 0.991
     e =     4.13236 eV
     psi = 0.166*[#   2]+0.166*[#   3]+0.166*[#   4]+0.166*[#   6]+0.166*[#   7]+
          +0.166*[#   8]+
    |psi|^2 = 0.996
     e =     4.13236 eV
     psi = 0.166*[#   2]+0.166*[#   3]+0.166*[#   4]+0.166*[#   6]+0.166*[#   7]+
          +0.166*[#   8]+
    |psi|^2 = 0.996
     e =     5.91132 eV
     psi = 0.345*[#   1]+0.345*[#   5]+0.048*[#   2]+0.048*[#   3]+0.048*[#   4]+
          +0.048*[#   6]+0.048*[#   7]+0.048*[#   8]+
    |psi|^2 = 0.978
     e =     9.54163 eV
     psi = 0.141*[#   2]+0.141*[#   3]+0.141*[#   4]+0.141*[#   6]+0.141*[#   7]+
          +0.141*[#   8]+
    |psi|^2 = 0.847
     e =     9.54163 eV
     psi = 0.141*[#   2]+0.141*[#   3]+0.141*[#   4]+0.141*[#   6]+0.141*[#   7]+
          +0.141*[#   8]+
    |psi|^2 = 0.847
     e =    13.26987 eV
     psi = 0.019*[#   2]+0.019*[#   3]+0.019*[#   4]+0.019*[#   6]+0.019*[#   7]+
          +0.019*[#   8]+0.018*[#   1]+0.018*[#   5]+
    |psi|^2 = 0.149
     e =    15.38669 eV
     psi = 0.062*[#   1]+0.062*[#   5]+0.061*[#   2]+0.061*[#   3]+0.061*[#   4]+
          +0.061*[#   6]+0.061*[#   7]+0.061*[#   8]+
    |psi|^2 = 0.489
     e =    16.42737 eV
     psi = 0.016*[#   2]+0.016*[#   3]+0.016*[#   4]+0.016*[#   6]+0.016*[#   7]+
          +0.016*[#   8]+
    |psi|^2 = 0.095
     e =    16.42737 eV
     psi = 0.016*[#   2]+0.016*[#   3]+0.016*[#   4]+0.016*[#   6]+0.016*[#   7]+
          +0.016*[#   8]+
    |psi|^2 = 0.095
     e =    18.30427 eV
     psi = 0.048*[#   2]+0.048*[#   3]+0.048*[#   4]+0.048*[#   6]+0.048*[#   7]+
          +0.048*[#   8]+0.040*[#   1]+0.040*[#   5]+
    |psi|^2 = 0.369
     e =    19.70177 eV
     psi = 0.006*[#   2]+0.006*[#   3]+0.006*[#   4]+0.006*[#   6]+0.006*[#   7]+
          +0.006*[#   8]+
    |psi|^2 = 0.035
     e =    19.70177 eV
     psi = 0.006*[#   2]+0.006*[#   3]+0.006*[#   4]+0.006*[#   6]+0.006*[#   7]+
          +0.006*[#   8]+
    |psi|^2 = 0.035
     e =    23.77232 eV
     psi = 0.003*[#   1]+0.003*[#   5]+
    |psi|^2 = 0.007
     e =    26.27678 eV
     psi = 
    |psi|^2 = 0.001

 k =  -0.0718099053 -0.0718099053  0.0718099053
     e =    -5.75638 eV
     psi = 0.351*[#   1]+0.351*[#   5]+0.049*[#   2]+0.049*[#   3]+0.049*[#   4]+
          +0.049*[#   6]+0.049*[#   7]+0.049*[#   8]+
    |psi|^2 = 0.997
     e =    -2.18015 eV
     psi = 0.181*[#   1]+0.181*[#   5]+0.105*[#   2]+0.105*[#   3]+0.105*[#   4]+
          +0.105*[#   6]+0.105*[#   7]+0.105*[#   8]+
    |psi|^2 = 0.992
     e =     4.16894 eV
     psi = 0.166*[#   2]+0.166*[#   3]+0.166*[#   4]+0.166*[#   6]+0.166*[#   7]+
          +0.166*[#   8]+
    |psi|^2 = 0.996
     e =     4.16894 eV
     psi = 0.166*[#   2]+0.166*[#   3]+0.166*[#   4]+0.166*[#   6]+0.166*[#   7]+
          +0.166*[#   8]+
    |psi|^2 = 0.996
     e =     5.94834 eV
     psi = 0.341*[#   1]+0.341*[#   5]+0.049*[#   2]+0.049*[#   3]+0.049*[#   4]+
          +0.049*[#   6]+0.049*[#   7]+0.049*[#   8]+
    |psi|^2 = 0.979
     e =     9.55209 eV
     psi = 0.142*[#   2]+0.142*[#   3]+0.142*[#   4]+0.142*[#   6]+0.142*[#   7]+
          +0.142*[#   8]+
    |psi|^2 = 0.854
     e =     9.55209 eV
     psi = 0.142*[#   2]+0.142*[#   3]+0.142*[#   4]+0.142*[#   6]+0.142*[#   7]+
          +0.142*[#   8]+
    |psi|^2 = 0.854
     e =    13.30321 eV
     psi = 0.024*[#   2]+0.024*[#   3]+0.024*[#   4]+0.024*[#   6]+0.024*[#   7]+
          +0.024*[#   8]+0.023*[#   1]+0.023*[#   5]+
    |psi|^2 = 0.190
     e =    14.90957 eV
     psi = 0.065*[#   1]+0.065*[#   5]+0.063*[#   2]+0.063*[#   3]+0.063*[#   4]+
          +0.063*[#   6]+0.063*[#   7]+0.063*[#   8]+
    |psi|^2 = 0.505
     e =    16.01980 eV
     psi = 0.015*[#   2]+0.015*[#   3]+0.015*[#   4]+0.015*[#   6]+0.015*[#   7]+
          +0.015*[#   8]+
    |psi|^2 = 0.089
     e =    16.01980 eV
     psi = 0.015*[#   2]+0.015*[#   3]+0.015*[#   4]+0.015*[#   6]+0.015*[#   7]+
          +0.015*[#   8]+
    |psi|^2 = 0.089
     e =    18.63702 eV
     psi = 0.040*[#   2]+0.040*[#   3]+0.040*[#   4]+0.040*[#   6]+0.040*[#   7]+
          +0.040*[#   8]+0.034*[#   1]+0.034*[#   5]+
    |psi|^2 = 0.307
     e =    20.26620 eV
     psi = 0.006*[#   2]+0.006*[#   3]+0.006*[#   4]+0.006*[#   6]+0.006*[#   7]+
          +0.006*[#   8]+
    |psi|^2 = 0.035
     e =    20.26620 eV
     psi = 0.006*[#   2]+0.006*[#   3]+0.006*[#   4]+0.006*[#   6]+0.006*[#   7]+
          +0.006*[#   8]+
    |psi|^2 = 0.035
     e =    23.28354 eV
     psi = 0.003*[#   1]+0.003*[#   5]+0.001*[#   2]+0.001*[#   3]+0.001*[#   4]+
          +0.001*[#   6]+0.001*[#   7]+0.001*[#   8]+
    |psi|^2 = 0.012
     e =    25.58308 eV
     psi = 
    |psi|^2 = 0.000

 k =  -0.0675857932 -0.0675857932  0.0675857932
     e =    -5.97354 eV
     psi = 0.347*[#   1]+0.347*[#   5]+0.050*[#   2]+0.050*[#   3]+0.050*[#   4]+
          +0.050*[#   6]+0.050*[#   7]+0.050*[#   8]+
    |psi|^2 = 0.997
     e =    -1.79007 eV
     psi = 0.187*[#   1]+0.187*[#   5]+0.103*[#   2]+0.103*[#   3]+0.103*[#   4]+
          +0.103*[#   6]+0.103*[#   7]+0.103*[#   8]+
    |psi|^2 = 0.992
     e =     4.21576 eV
     psi = 0.166*[#   2]+0.166*[#   3]+0.166*[#   4]+0.166*[#   6]+0.166*[#   7]+
          +0.166*[#   8]+
    |psi|^2 = 0.996
     e =     4.21576 eV
     psi = 0.166*[#   2]+0.166*[#   3]+0.166*[#   4]+0.166*[#   6]+0.166*[#   7]+
          +0.166*[#   8]+
    |psi|^2 = 0.996
     e =     5.99593 eV
     psi = 0.337*[#   1]+0.337*[#   5]+0.051*[#   2]+0.051*[#   3]+0.051*[#   4]+
          +0.051*[#   6]+0.051*[#   7]+0.051*[#   8]+
    |psi|^2 = 0.980
     e =     9.56167 eV
     psi = 0.144*[#   2]+0.144*[#   3]+0.144*[#   4]+0.144*[#   6]+0.144*[#   7]+
          +0.144*[#   8]+
    |psi|^2 = 0.862
     e =     9.56167 eV
     psi = 0.144*[#   2]+0.144*[#   3]+0.144*[#   4]+0.144*[#   6]+0.144*[#   7]+
          +0.144*[#   8]+
    |psi|^2 = 0.862
     e =    13.32203 eV
     psi = 0.036*[#   2]+0.036*[#   3]+0.036*[#   4]+0.036*[#   6]+0.036*[#   7]+
          +0.036*[#   8]+0.033*[#   1]+0.033*[#   5]+
    |psi|^2 = 0.281
     e =    14.46668 eV
     psi = 0.061*[#   1]+0.061*[#   5]+0.057*[#   2]+0.057*[#   3]+0.057*[#   4]+
          +0.057*[#   6]+0.057*[#   7]+0.057*[#   8]+
    |psi|^2 = 0.462
     e =    15.63853 eV
     psi = 0.014*[#   2]+0.014*[#   3]+0.014*[#   4]+0.014*[#   6]+0.014*[#   7]+
          +0.014*[#   8]+
    |psi|^2 = 0.082
     e =    15.63853 eV
     psi = 0.014*[#   2]+0.014*[#   3]+0.014*[#   4]+0.014*[#   6]+0.014*[#   7]+
          +0.014*[#   8]+
    |psi|^2 = 0.082
     e =    18.82474 eV
     psi = 0.032*[#   2]+0.032*[#   3]+0.032*[#   4]+0.032*[#   6]+0.032*[#   7]+
          +0.032*[#   8]+0.027*[#   1]+0.027*[#   5]+
    |psi|^2 = 0.247
     e =    20.85181 eV
     psi = 0.006*[#   2]+0.006*[#   3]+0.006*[#   4]+0.006*[#   6]+0.006*[#   7]+
          +0.006*[#   8]+
    |psi|^2 = 0.034
     e =    20.85181 eV
     psi = 0.006*[#   2]+0.006*[#   3]+0.006*[#   4]+0.006*[#   6]+0.006*[#   7]+
          +0.006*[#   8]+
    |psi|^2 = 0.034
     e =    22.95909 eV
     psi = 0.003*[#   1]+0.003*[#   5]+0.003*[#   2]+0.003*[#   3]+0.003*[#   4]+
          +0.003*[#   6]+0.003*[#   7]+0.003*[#   8]+
    |psi|^2 = 0.023
     e =    24.91198 eV
     psi = 
    |psi|^2 = 0.000

 k =  -0.0633616811 -0.0633616811  0.0633616811
     e =    -6.17710 eV
     psi = 0.347*[#   1]+0.347*[#   5]+0.050*[#   2]+0.050*[#   3]+0.050*[#   4]+
          +0.050*[#   6]+0.050*[#   7]+0.050*[#   8]+
    |psi|^2 = 0.996
     e =    -1.37430 eV
     psi = 0.192*[#   1]+0.192*[#   5]+0.102*[#   2]+0.102*[#   3]+0.102*[#   4]+
          +0.102*[#   6]+0.102*[#   7]+0.102*[#   8]+
    |psi|^2 = 0.993
     e =     4.27264 eV
     psi = 0.166*[#   2]+0.166*[#   3]+0.166*[#   4]+0.166*[#   6]+0.166*[#   7]+
          +0.166*[#   8]+
    |psi|^2 = 0.996
     e =     4.27264 eV
     psi = 0.166*[#   2]+0.166*[#   3]+0.166*[#   4]+0.166*[#   6]+0.166*[#   7]+
          +0.166*[#   8]+
    |psi|^2 = 0.996
     e =     6.05362 eV
     psi = 0.332*[#   1]+0.332*[#   5]+0.053*[#   2]+0.053*[#   3]+0.053*[#   4]+
          +0.053*[#   6]+0.053*[#   7]+0.053*[#   8]+
    |psi|^2 = 0.981
     e =     9.56659 eV
     psi = 0.145*[#   2]+0.145*[#   3]+0.145*[#   4]+0.145*[#   6]+0.145*[#   7]+
          +0.145*[#   8]+
    |psi|^2 = 0.873
     e =     9.56659 eV
     psi = 0.145*[#   2]+0.145*[#   3]+0.145*[#   4]+0.145*[#   6]+0.145*[#   7]+
          +0.145*[#   8]+
    |psi|^2 = 0.873
     e =    13.27077 eV
     psi = 0.062*[#   2]+0.062*[#   3]+0.062*[#   4]+0.062*[#   6]+0.062*[#   7]+
          +0.062*[#   8]+0.059*[#   1]+0.059*[#   5]+
    |psi|^2 = 0.488
     e =    14.11358 eV
     psi = 0.041*[#   1]+0.041*[#   5]+0.036*[#   2]+0.036*[#   3]+0.036*[#   4]+
          +0.036*[#   6]+0.036*[#   7]+0.036*[#   8]+
    |psi|^2 = 0.297
     e =    15.29091 eV
     psi = 0.012*[#   2]+0.012*[#   3]+0.012*[#   4]+0.012*[#   6]+0.012*[#   7]+
          +0.012*[#   8]+
    |psi|^2 = 0.075
     e =    15.29091 eV
     psi = 0.012*[#   2]+0.012*[#   3]+0.012*[#   4]+0.012*[#   6]+0.012*[#   7]+
          +0.012*[#   8]+
    |psi|^2 = 0.075
     e =    18.80816 eV
     psi = 0.024*[#   2]+0.024*[#   3]+0.024*[#   4]+0.024*[#   6]+0.024*[#   7]+
          +0.024*[#   8]+0.022*[#   1]+0.022*[#   5]+
    |psi|^2 = 0.188
     e =    21.44601 eV
     psi = 0.005*[#   2]+0.005*[#   3]+0.005*[#   4]+0.005*[#   6]+0.005*[#   7]+
          +0.005*[#   8]+
    |psi|^2 = 0.032
     e =    21.44601 eV
     psi = 0.005*[#   2]+0.005*[#   3]+0.005*[#   4]+0.005*[#   6]+0.005*[#   7]+
          +0.005*[#   8]+
    |psi|^2 = 0.032
     e =    22.86191 eV
     psi = 0.005*[#   2]+0.005*[#   3]+0.005*[#   4]+0.005*[#   6]+0.005*[#   7]+
          +0.005*[#   8]+0.004*[#   1]+0.004*[#   5]+
    |psi|^2 = 0.040
     e =    24.27075 eV
     psi = 
    |psi|^2 = 0.000

 k =  -0.0591375691 -0.0591375691  0.0591375691
     e =    -6.36058 eV
     psi = 0.350*[#   1]+0.350*[#   5]+0.050*[#   2]+0.050*[#   3]+0.050*[#   4]+
          +0.050*[#   6]+0.050*[#   7]+0.050*[#   8]+
    |psi|^2 = 0.996
     e =    -0.93934 eV
     psi = 0.194*[#   1]+0.194*[#   5]+0.101*[#   2]+0.101*[#   3]+0.101*[#   4]+
          +0.101*[#   6]+0.101*[#   7]+0.101*[#   8]+
    |psi|^2 = 0.993
     e =     4.33925 eV
     psi = 0.166*[#   2]+0.166*[#   3]+0.166*[#   4]+0.166*[#   6]+0.166*[#   7]+
          +0.166*[#   8]+
    |psi|^2 = 0.996
     e =     4.33925 eV
     psi = 0.166*[#   2]+0.166*[#   3]+0.166*[#   4]+0.166*[#   6]+0.166*[#   7]+
          +0.166*[#   8]+
    |psi|^2 = 0.996
     e =     6.12104 eV
     psi = 0.326*[#   1]+0.326*[#   5]+0.055*[#   2]+0.055*[#   3]+0.055*[#   4]+
          +0.055*[#   6]+0.055*[#   7]+0.055*[#   8]+
    |psi|^2 = 0.982
     e =     9.56271 eV
     psi = 0.148*[#   2]+0.148*[#   3]+0.148*[#   4]+0.148*[#   6]+0.148*[#   7]+
          +0.148*[#   8]+
    |psi|^2 = 0.886
     e =     9.56271 eV
     psi = 0.148*[#   2]+0.148*[#   3]+0.148*[#   4]+0.148*[#   6]+0.148*[#   7]+
          +0.148*[#   8]+
    |psi|^2 = 0.886
     e =    13.04954 eV
     psi = 0.092*[#   2]+0.092*[#   3]+0.092*[#   4]+0.092*[#   6]+0.092*[#   7]+
          +0.092*[#   8]+0.091*[#   1]+0.091*[#   5]+
    |psi|^2 = 0.735
     e =    13.94884 eV
     psi = 0.014*[#   1]+0.014*[#   5]+0.010*[#   2]+0.010*[#   3]+0.010*[#   4]+
          +0.010*[#   6]+0.010*[#   7]+0.010*[#   8]+
    |psi|^2 = 0.086
     e =    14.98228 eV
     psi = 0.011*[#   2]+0.011*[#   3]+0.011*[#   4]+0.011*[#   6]+0.011*[#   7]+
          +0.011*[#   8]+
    |psi|^2 = 0.065
     e =    14.98228 eV
     psi = 0.011*[#   2]+0.011*[#   3]+0.011*[#   4]+0.011*[#   6]+0.011*[#   7]+
          +0.011*[#   8]+
    |psi|^2 = 0.065
     e =    18.58177 eV
     psi = 0.017*[#   2]+0.017*[#   3]+0.017*[#   4]+0.017*[#   6]+0.017*[#   7]+
          +0.017*[#   8]+0.017*[#   1]+0.017*[#   5]+
    |psi|^2 = 0.136
     e =    22.01613 eV
     psi = 0.005*[#   2]+0.005*[#   3]+0.005*[#   4]+0.005*[#   6]+0.005*[#   7]+
          +0.005*[#   8]+
    |psi|^2 = 0.030
     e =    22.01613 eV
     psi = 0.005*[#   2]+0.005*[#   3]+0.005*[#   4]+0.005*[#   6]+0.005*[#   7]+
          +0.005*[#   8]+
    |psi|^2 = 0.030
     e =    23.00523 eV
     psi = 0.008*[#   2]+0.008*[#   3]+0.008*[#   4]+0.008*[#   6]+0.008*[#   7]+
          +0.008*[#   8]+0.005*[#   1]+0.005*[#   5]+
    |psi|^2 = 0.055
     e =    23.68836 eV
     psi = 
    |psi|^2 = 0.000

 k =  -0.0549134570 -0.0549134570  0.0549134570
     e =    -6.52032 eV
     psi = 0.355*[#   1]+0.355*[#   5]+0.048*[#   2]+0.048*[#   3]+0.048*[#   4]+
          +0.048*[#   6]+0.048*[#   7]+0.048*[#   8]+
    |psi|^2 = 0.996
     e =    -0.48924 eV
     psi = 0.196*[#   1]+0.196*[#   5]+0.100*[#   2]+0.100*[#   3]+0.100*[#   4]+
          +0.100*[#   6]+0.100*[#   7]+0.100*[#   8]+
    |psi|^2 = 0.993
     e =     4.41525 eV
     psi = 0.166*[#   2]+0.166*[#   3]+0.166*[#   4]+0.166*[#   6]+0.166*[#   7]+
          +0.166*[#   8]+
    |psi|^2 = 0.995
     e =     4.41525 eV
     psi = 0.166*[#   2]+0.166*[#   3]+0.166*[#   4]+0.166*[#   6]+0.166*[#   7]+
          +0.166*[#   8]+
    |psi|^2 = 0.995
     e =     6.19776 eV
     psi = 0.318*[#   1]+0.318*[#   5]+0.058*[#   2]+0.058*[#   3]+0.058*[#   4]+
          +0.058*[#   6]+0.058*[#   7]+0.058*[#   8]+
    |psi|^2 = 0.983
     e =     9.54560 eV
     psi = 0.150*[#   2]+0.150*[#   3]+0.150*[#   4]+0.150*[#   6]+0.150*[#   7]+
          +0.150*[#   8]+
    |psi|^2 = 0.900
     e =     9.54560 eV
     psi = 0.150*[#   2]+0.150*[#   3]+0.150*[#   4]+0.150*[#   6]+0.150*[#   7]+
          +0.150*[#   8]+
    |psi|^2 = 0.900
     e =    12.67830 eV
     psi = 0.106*[#   1]+0.106*[#   5]+0.104*[#   2]+0.104*[#   3]+0.104*[#   4]+
          +0.104*[#   6]+0.104*[#   7]+0.104*[#   8]+
    |psi|^2 = 0.838
     e =    13.94968 eV
     psi = 0.004*[#   1]+0.004*[#   5]+0.001*[#   2]+0.001*[#   3]+0.001*[#   4]+
          +0.001*[#   6]+0.001*[#   7]+0.001*[#   8]+
    |psi|^2 = 0.015
     e =    14.71947 eV
     psi = 0.009*[#   2]+0.009*[#   3]+0.009*[#   4]+0.009*[#   6]+0.009*[#   7]+
          +0.009*[#   8]+
    |psi|^2 = 0.054
     e =    14.71947 eV
     psi = 0.009*[#   2]+0.009*[#   3]+0.009*[#   4]+0.009*[#   6]+0.009*[#   7]+
          +0.009*[#   8]+
    |psi|^2 = 0.054
     e =    18.20461 eV
     psi = 0.013*[#   1]+0.013*[#   5]+0.012*[#   2]+0.012*[#   3]+0.012*[#   4]+
          +0.012*[#   6]+0.012*[#   7]+0.012*[#   8]+
    |psi|^2 = 0.097
     e =    22.37465 eV
     psi = 0.003*[#   2]+0.003*[#   3]+0.003*[#   4]+0.003*[#   6]+0.003*[#   7]+
          +0.003*[#   8]+
    |psi|^2 = 0.021
     e =    22.37465 eV
     psi = 0.003*[#   2]+0.003*[#   3]+0.003*[#   4]+0.003*[#   6]+0.003*[#   7]+
          +0.003*[#   8]+
    |psi|^2 = 0.021
     e =    23.33447 eV
     psi = 0.009*[#   2]+0.009*[#   3]+0.009*[#   4]+0.009*[#   6]+0.009*[#   7]+
          +0.009*[#   8]+0.005*[#   1]+0.005*[#   5]+
    |psi|^2 = 0.062
     e =    23.35309 eV
     psi = 0.001*[#   2]+0.001*[#   3]+0.001*[#   4]+0.001*[#   6]+0.001*[#   7]+
          +0.001*[#   8]+
    |psi|^2 = 0.007

 k =  -0.0506893449 -0.0506893449  0.0506893449
     e =    -6.65462 eV
     psi = 0.361*[#   1]+0.361*[#   5]+0.046*[#   2]+0.046*[#   3]+0.046*[#   4]+
          +0.046*[#   6]+0.046*[#   7]+0.046*[#   8]+
    |psi|^2 = 0.996
     e =    -0.02683 eV
     psi = 0.196*[#   1]+0.196*[#   5]+0.100*[#   2]+0.100*[#   3]+0.100*[#   4]+
          +0.100*[#   6]+0.100*[#   7]+0.100*[#   8]+
    |psi|^2 = 0.993
     e =     4.50016 eV
     psi = 0.166*[#   2]+0.166*[#   3]+0.166*[#   4]+0.166*[#   6]+0.166*[#   7]+
          +0.166*[#   8]+
    |psi|^2 = 0.995
     e =     4.50016 eV
     psi = 0.166*[#   2]+0.166*[#   3]+0.166*[#   4]+0.166*[#   6]+0.166*[#   7]+
          +0.166*[#   8]+
    |psi|^2 = 0.995
     e =     6.28294 eV
     psi = 0.311*[#   1]+0.311*[#   5]+0.060*[#   2]+0.060*[#   3]+0.060*[#   4]+
          +0.060*[#   6]+0.060*[#   7]+0.060*[#   8]+
    |psi|^2 = 0.984
     e =     9.51070 eV
     psi = 0.153*[#   2]+0.153*[#   3]+0.153*[#   4]+0.153*[#   6]+0.153*[#   7]+
          +0.153*[#   8]+
    |psi|^2 = 0.916
     e =     9.51070 eV
     psi = 0.153*[#   2]+0.153*[#   3]+0.153*[#   4]+0.153*[#   6]+0.153*[#   7]+
          +0.153*[#   8]+
    |psi|^2 = 0.916
     e =    12.25036 eV
     psi = 0.112*[#   1]+0.112*[#   5]+0.109*[#   2]+0.109*[#   3]+0.109*[#   4]+
          +0.109*[#   6]+0.109*[#   7]+0.109*[#   8]+
    |psi|^2 = 0.876
     e =    14.01658 eV
     psi = 0.001*[#   1]+0.001*[#   5]+
    |psi|^2 = 0.005
     e =    14.50720 eV
     psi = 0.007*[#   2]+0.007*[#   3]+0.007*[#   4]+0.007*[#   6]+0.007*[#   7]+
          +0.007*[#   8]+
    |psi|^2 = 0.043
     e =    14.50720 eV
     psi = 0.007*[#   2]+0.007*[#   3]+0.007*[#   4]+0.007*[#   6]+0.007*[#   7]+
          +0.007*[#   8]+
    |psi|^2 = 0.043
     e =    17.74996 eV
     psi = 0.010*[#   1]+0.010*[#   5]+0.008*[#   2]+0.008*[#   3]+0.008*[#   4]+
          +0.008*[#   6]+0.008*[#   7]+0.008*[#   8]+
    |psi|^2 = 0.070
     e =    22.10751 eV
     psi = 0.001*[#   2]+0.001*[#   3]+0.001*[#   4]+0.001*[#   6]+0.001*[#   7]+
          +0.001*[#   8]+
    |psi|^2 = 0.008
     e =    22.10751 eV
     psi = 0.001*[#   2]+0.001*[#   3]+0.001*[#   4]+0.001*[#   6]+0.001*[#   7]+
          +0.001*[#   8]+
    |psi|^2 = 0.008
     e =    23.67562 eV
     psi = 0.003*[#   2]+0.003*[#   3]+0.003*[#   4]+0.003*[#   6]+0.003*[#   7]+
          +0.003*[#   8]+
    |psi|^2 = 0.017
     e =    23.67562 eV
     psi = 0.003*[#   2]+0.003*[#   3]+0.003*[#   4]+0.003*[#   6]+0.003*[#   7]+
          +0.003*[#   8]+
    |psi|^2 = 0.017

 k =  -0.0464652328 -0.0464652328  0.0464652328
     e =    -6.76313 eV
     psi = 0.370*[#   1]+0.370*[#   5]+0.043*[#   2]+0.043*[#   3]+0.043*[#   4]+
          +0.043*[#   6]+0.043*[#   7]+0.043*[#   8]+
    |psi|^2 = 0.997
     e =     0.44589 eV
     psi = 0.196*[#   1]+0.196*[#   5]+0.100*[#   2]+0.100*[#   3]+0.100*[#   4]+
          +0.100*[#   6]+0.100*[#   7]+0.100*[#   8]+
    |psi|^2 = 0.993
     e =     4.59337 eV
     psi = 0.166*[#   2]+0.166*[#   3]+0.166*[#   4]+0.166*[#   6]+0.166*[#   7]+
          +0.166*[#   8]+
    |psi|^2 = 0.995
     e =     4.59337 eV
     psi = 0.166*[#   2]+0.166*[#   3]+0.166*[#   4]+0.166*[#   6]+0.166*[#   7]+
          +0.166*[#   8]+
    |psi|^2 = 0.995
     e =     6.37547 eV
     psi = 0.302*[#   1]+0.302*[#   5]+0.063*[#   2]+0.063*[#   3]+0.063*[#   4]+
          +0.063*[#   6]+0.063*[#   7]+0.063*[#   8]+
    |psi|^2 = 0.985
     e =     9.45467 eV
     psi = 0.155*[#   2]+0.155*[#   3]+0.155*[#   4]+0.155*[#   6]+0.155*[#   7]+
          +0.155*[#   8]+
    |psi|^2 = 0.930
     e =     9.45467 eV
     psi = 0.155*[#   2]+0.155*[#   3]+0.155*[#   4]+0.155*[#   6]+0.155*[#   7]+
          +0.155*[#   8]+
    |psi|^2 = 0.930
     e =    11.80596 eV
     psi = 0.116*[#   1]+0.116*[#   5]+0.111*[#   2]+0.111*[#   3]+0.111*[#   4]+
          +0.111*[#   6]+0.111*[#   7]+0.111*[#   8]+
    |psi|^2 = 0.899
     e =    14.09940 eV
     psi = 0.001*[#   1]+0.001*[#   5]+
    |psi|^2 = 0.007
     e =    14.35086 eV
     psi = 0.005*[#   2]+0.005*[#   3]+0.005*[#   4]+0.005*[#   6]+0.005*[#   7]+
          +0.005*[#   8]+
    |psi|^2 = 0.031
     e =    14.35086 eV
     psi = 0.005*[#   2]+0.005*[#   3]+0.005*[#   4]+0.005*[#   6]+0.005*[#   7]+
          +0.005*[#   8]+
    |psi|^2 = 0.031
     e =    17.27683 eV
     psi = 0.008*[#   1]+0.008*[#   5]+0.005*[#   2]+0.005*[#   3]+0.005*[#   4]+
          +0.005*[#   6]+0.005*[#   7]+0.005*[#   8]+
    |psi|^2 = 0.049
     e =    21.58775 eV
     psi = 
    |psi|^2 = 0.005
     e =    21.58775 eV
     psi = 
    |psi|^2 = 0.005
     e =    24.14164 eV
     psi = 0.007*[#   2]+0.007*[#   3]+0.007*[#   4]+0.007*[#   6]+0.007*[#   7]+
          +0.007*[#   8]+0.003*[#   1]+0.003*[#   5]+
    |psi|^2 = 0.048
     e =    24.28528 eV
     psi = 0.003*[#   2]+0.003*[#   3]+0.003*[#   4]+0.003*[#   6]+0.003*[#   7]+
          +0.003*[#   8]+
    |psi|^2 = 0.018

 k =  -0.0422411208 -0.0422411208  0.0422411208
     e =    -6.84670 eV
     psi = 0.381*[#   1]+0.381*[#   5]+0.039*[#   2]+0.039*[#   3]+0.039*[#   4]+
          +0.039*[#   6]+0.039*[#   7]+0.039*[#   8]+
    |psi|^2 = 0.997
     e =     0.92731 eV
     psi = 0.195*[#   1]+0.195*[#   5]+0.101*[#   2]+0.101*[#   3]+0.101*[#   4]+
          +0.101*[#   6]+0.101*[#   7]+0.101*[#   8]+
    |psi|^2 = 0.993
     e =     4.69407 eV
     psi = 0.166*[#   2]+0.166*[#   3]+0.166*[#   4]+0.166*[#   6]+0.166*[#   7]+
          +0.166*[#   8]+
    |psi|^2 = 0.994
     e =     4.69407 eV
     psi = 0.166*[#   2]+0.166*[#   3]+0.166*[#   4]+0.166*[#   6]+0.166*[#   7]+
          +0.166*[#   8]+
    |psi|^2 = 0.994
     e =     6.47371 eV
     psi = 0.294*[#   1]+0.294*[#   5]+0.066*[#   2]+0.066*[#   3]+0.066*[#   4]+
          +0.066*[#   6]+0.066*[#   7]+0.066*[#   8]+
    |psi|^2 = 0.987
     e =     9.37541 eV
     psi = 0.157*[#   2]+0.157*[#   3]+0.157*[#   4]+0.157*[#   6]+0.157*[#   7]+
          +0.157*[#   8]+
    |psi|^2 = 0.944
     e =     9.37541 eV
     psi = 0.157*[#   2]+0.157*[#   3]+0.157*[#   4]+0.157*[#   6]+0.157*[#   7]+
          +0.157*[#   8]+
    |psi|^2 = 0.944
     e =    11.35801 eV
     psi = 0.117*[#   1]+0.117*[#   5]+0.114*[#   2]+0.114*[#   3]+0.114*[#   4]+
          +0.114*[#   6]+0.114*[#   7]+0.114*[#   8]+
    |psi|^2 = 0.916
     e =    14.16717 eV
     psi = 0.002*[#   2]+0.002*[#   3]+0.002*[#   4]+0.002*[#   6]+0.002*[#   7]+
          +0.002*[#   8]+0.001*[#   1]+0.001*[#   5]+
    |psi|^2 = 0.012
     e =    14.25273 eV
     psi = 0.004*[#   2]+0.004*[#   3]+0.004*[#   4]+0.004*[#   6]+0.004*[#   7]+
          +0.004*[#   8]+
    |psi|^2 = 0.021
     e =    14.25273 eV
     psi = 0.004*[#   2]+0.004*[#   3]+0.004*[#   4]+0.004*[#   6]+0.004*[#   7]+
          +0.004*[#   8]+
    |psi|^2 = 0.021
     e =    16.83300 eV
     psi = 0.006*[#   1]+0.006*[#   5]+0.003*[#   2]+0.003*[#   3]+0.003*[#   4]+
          +0.003*[#   6]+0.003*[#   7]+0.003*[#   8]+
    |psi|^2 = 0.032
     e =    21.03762 eV
     psi = 
    |psi|^2 = 0.004
     e =    21.03762 eV
     psi = 
    |psi|^2 = 0.004
     e =    23.84294 eV
     psi = 0.002*[#   2]+0.002*[#   3]+0.002*[#   4]+0.002*[#   6]+0.002*[#   7]+
          +0.002*[#   8]+0.001*[#   1]+0.001*[#   5]+
    |psi|^2 = 0.013
     e =    24.95794 eV
     psi = 0.003*[#   2]+0.003*[#   3]+0.003*[#   4]+0.003*[#   6]+0.003*[#   7]+
          +0.003*[#   8]+
    |psi|^2 = 0.017

 k =  -0.0380170087 -0.0380170087  0.0380170087
     e =    -6.90716 eV
     psi = 0.393*[#   1]+0.393*[#   5]+0.035*[#   2]+0.035*[#   3]+0.035*[#   4]+
          +0.035*[#   6]+0.035*[#   7]+0.035*[#   8]+
    |psi|^2 = 0.997
     e =     1.41607 eV
     psi = 0.193*[#   1]+0.193*[#   5]+0.101*[#   2]+0.101*[#   3]+0.101*[#   4]+
          +0.101*[#   6]+0.101*[#   7]+0.101*[#   8]+
    |psi|^2 = 0.993
     e =     4.80105 eV
     psi = 0.166*[#   2]+0.166*[#   3]+0.166*[#   4]+0.166*[#   6]+0.166*[#   7]+
          +0.166*[#   8]+
    |psi|^2 = 0.993
     e =     4.80105 eV
     psi = 0.166*[#   2]+0.166*[#   3]+0.166*[#   4]+0.166*[#   6]+0.166*[#   7]+
          +0.166*[#   8]+
    |psi|^2 = 0.993
     e =     6.57495 eV
     psi = 0.286*[#   1]+0.286*[#   5]+0.069*[#   2]+0.069*[#   3]+0.069*[#   4]+
          +0.069*[#   6]+0.069*[#   7]+0.069*[#   8]+
    |psi|^2 = 0.988
     e =     9.27329 eV
     psi = 0.159*[#   2]+0.159*[#   3]+0.159*[#   4]+0.159*[#   6]+0.159*[#   7]+
          +0.159*[#   8]+
    |psi|^2 = 0.955
     e =     9.27329 eV
     psi = 0.159*[#   2]+0.159*[#   3]+0.159*[#   4]+0.159*[#   6]+0.159*[#   7]+
          +0.159*[#   8]+
    |psi|^2 = 0.955
     e =    10.91155 eV
     psi = 0.117*[#   1]+0.117*[#   5]+0.116*[#   2]+0.116*[#   3]+0.116*[#   4]+
          +0.116*[#   6]+0.116*[#   7]+0.116*[#   8]+
    |psi|^2 = 0.930
     e =    14.18488 eV
     psi = 0.002*[#   2]+0.002*[#   3]+0.002*[#   4]+0.002*[#   6]+0.002*[#   7]+
          +0.002*[#   8]+0.002*[#   1]+0.002*[#   5]+
    |psi|^2 = 0.017
     e =    14.21351 eV
     psi = 0.002*[#   2]+0.002*[#   3]+0.002*[#   4]+0.002*[#   6]+0.002*[#   7]+
          +0.002*[#   8]+
    |psi|^2 = 0.013
     e =    14.21351 eV
     psi = 0.002*[#   2]+0.002*[#   3]+0.002*[#   4]+0.002*[#   6]+0.002*[#   7]+
          +0.002*[#   8]+
    |psi|^2 = 0.013
     e =    16.46664 eV
     psi = 0.005*[#   1]+0.005*[#   5]+0.002*[#   2]+0.002*[#   3]+0.002*[#   4]+
          +0.002*[#   6]+0.002*[#   7]+0.002*[#   8]+
    |psi|^2 = 0.019
     e =    20.49223 eV
     psi = 
    |psi|^2 = 0.004
     e =    20.49223 eV
     psi = 
    |psi|^2 = 0.004
     e =    23.29670 eV
     psi = 0.001*[#   1]+
    |psi|^2 = 0.008
     e =    25.63014 eV
     psi = 0.006*[#   2]+0.006*[#   3]+0.006*[#   4]+0.006*[#   6]+0.006*[#   7]+
          +0.006*[#   8]+0.003*[#   1]+0.003*[#   5]+
    |psi|^2 = 0.039

 k =  -0.0337928966 -0.0337928966  0.0337928966
     e =    -6.94712 eV
     psi = 0.406*[#   1]+0.406*[#   5]+0.031*[#   2]+0.031*[#   3]+0.031*[#   4]+
          +0.031*[#   6]+0.031*[#   7]+0.031*[#   8]+
    |psi|^2 = 0.997
     e =     1.91076 eV
     psi = 0.191*[#   1]+0.191*[#   5]+0.102*[#   2]+0.102*[#   3]+0.102*[#   4]+
          +0.102*[#   6]+0.102*[#   7]+0.102*[#   8]+
    |psi|^2 = 0.993
     e =     4.91283 eV
     psi = 0.165*[#   2]+0.165*[#   3]+0.165*[#   4]+0.165*[#   6]+0.165*[#   7]+
          +0.165*[#   8]+
    |psi|^2 = 0.993
     e =     4.91283 eV
     psi = 0.165*[#   2]+0.165*[#   3]+0.165*[#   4]+0.165*[#   6]+0.165*[#   7]+
          +0.165*[#   8]+
    |psi|^2 = 0.993
     e =     6.67557 eV
     psi = 0.278*[#   1]+0.278*[#   5]+0.072*[#   2]+0.072*[#   3]+0.072*[#   4]+
          +0.072*[#   6]+0.072*[#   7]+0.072*[#   8]+
    |psi|^2 = 0.989
     e =     9.15111 eV
     psi = 0.161*[#   2]+0.161*[#   3]+0.161*[#   4]+0.161*[#   6]+0.161*[#   7]+
          +0.161*[#   8]+
    |psi|^2 = 0.963
     e =     9.15111 eV
     psi = 0.161*[#   2]+0.161*[#   3]+0.161*[#   4]+0.161*[#   6]+0.161*[#   7]+
          +0.161*[#   8]+
    |psi|^2 = 0.963
     e =    10.46953 eV
     psi = 0.119*[#   2]+0.119*[#   3]+0.119*[#   4]+0.119*[#   6]+0.119*[#   7]+
          +0.119*[#   8]+0.114*[#   1]+0.114*[#   5]+
    |psi|^2 = 0.943
     e =    14.11310 eV
     psi = 0.003*[#   2]+0.003*[#   3]+0.003*[#   4]+0.003*[#   6]+0.003*[#   7]+
          +0.003*[#   8]+0.002*[#   1]+0.002*[#   5]+
    |psi|^2 = 0.019
     e =    14.23037 eV
     psi = 0.001*[#   2]+0.001*[#   3]+0.001*[#   4]+0.001*[#   6]+0.001*[#   7]+
          +0.001*[#   8]+
    |psi|^2 = 0.008
     e =    14.23037 eV
     psi = 0.001*[#   2]+0.001*[#   3]+0.001*[#   4]+0.001*[#   6]+0.001*[#   7]+
          +0.001*[#   8]+
    |psi|^2 = 0.008
     e =    16.22732 eV
     psi = 0.003*[#   1]+0.003*[#   5]+
    |psi|^2 = 0.009
     e =    19.96190 eV
     psi = 
    |psi|^2 = 0.004
     e =    19.96190 eV
     psi = 
    |psi|^2 = 0.004
     e =    22.74688 eV
     psi = 0.001*[#   1]+0.001*[#   5]+
    |psi|^2 = 0.007
     e =    26.26192 eV
     psi = 0.005*[#   2]+0.005*[#   3]+0.005*[#   4]+0.005*[#   6]+0.005*[#   7]+
          +0.005*[#   8]+0.002*[#   1]+0.002*[#   5]+
    |psi|^2 = 0.034

 k =  -0.0295687845 -0.0295687845  0.0295687845
     e =    -6.96984 eV
     psi = 0.421*[#   1]+0.421*[#   5]+0.026*[#   2]+0.026*[#   3]+0.026*[#   4]+
          +0.026*[#   6]+0.026*[#   7]+0.026*[#   8]+
    |psi|^2 = 0.997
     e =     2.40990 eV
     psi = 0.189*[#   1]+0.189*[#   5]+0.102*[#   2]+0.102*[#   3]+0.102*[#   4]+
          +0.102*[#   6]+0.102*[#   7]+0.102*[#   8]+
    |psi|^2 = 0.993
     e =     5.02746 eV
     psi = 0.165*[#   2]+0.165*[#   3]+0.165*[#   4]+0.165*[#   6]+0.165*[#   7]+
          +0.165*[#   8]+
    |psi|^2 = 0.992
     e =     5.02746 eV
     psi = 0.165*[#   2]+0.165*[#   3]+0.165*[#   4]+0.165*[#   6]+0.165*[#   7]+
          +0.165*[#   8]+
    |psi|^2 = 0.992
     e =     6.76965 eV
     psi = 0.273*[#   1]+0.273*[#   5]+0.074*[#   2]+0.074*[#   3]+0.074*[#   4]+
          +0.074*[#   6]+0.074*[#   7]+0.074*[#   8]+
    |psi|^2 = 0.990
     e =     9.01355 eV
     psi = 0.162*[#   2]+0.162*[#   3]+0.162*[#   4]+0.162*[#   6]+0.162*[#   7]+
          +0.162*[#   8]+
    |psi|^2 = 0.969
     e =     9.01355 eV
     psi = 0.162*[#   2]+0.162*[#   3]+0.162*[#   4]+0.162*[#   6]+0.162*[#   7]+
          +0.162*[#   8]+
    |psi|^2 = 0.969
     e =    10.03537 eV
     psi = 0.123*[#   2]+0.123*[#   3]+0.123*[#   4]+0.123*[#   6]+0.123*[#   7]+
          +0.123*[#   8]+0.109*[#   1]+0.109*[#   5]+
    |psi|^2 = 0.953
     e =    13.93365 eV
     psi = 0.002*[#   1]+0.002*[#   2]+0.002*[#   3]+0.002*[#   4]+0.002*[#   5]+
          +0.002*[#   6]+0.002*[#   7]+0.002*[#   8]+
    |psi|^2 = 0.018
     e =    14.29837 eV
     psi = 
    |psi|^2 = 0.005
     e =    14.29837 eV
     psi = 
    |psi|^2 = 0.005
     e =    16.14044 eV
     psi = 0.002*[#   1]+0.002*[#   5]+
    |psi|^2 = 0.004
     e =    19.44882 eV
     psi = 
    |psi|^2 = 0.004
     e =    19.44882 eV
     psi = 
    |psi|^2 = 0.004
     e =    22.21693 eV
     psi = 0.001*[#   1]+0.001*[#   5]+
    |psi|^2 = 0.006
     e =    26.91691 eV
     psi = 0.004*[#   2]+0.004*[#   3]+0.004*[#   4]+0.004*[#   6]+0.004*[#   7]+
          +0.004*[#   8]+0.002*[#   1]+0.002*[#   5]+
    |psi|^2 = 0.030

 k =  -0.0253446725 -0.0253446725  0.0253446725
     e =    -6.97893 eV
     psi = 0.436*[#   1]+0.436*[#   5]+0.021*[#   2]+0.021*[#   3]+0.021*[#   4]+
          +0.021*[#   6]+0.021*[#   7]+0.021*[#   8]+
    |psi|^2 = 0.997
     e =     2.91183 eV
     psi = 0.187*[#   1]+0.187*[#   5]+0.103*[#   2]+0.103*[#   3]+0.103*[#   4]+
          +0.103*[#   6]+0.103*[#   7]+0.103*[#   8]+
    |psi|^2 = 0.993
     e =     5.14237 eV
     psi = 0.165*[#   2]+0.165*[#   3]+0.165*[#   4]+0.165*[#   6]+0.165*[#   7]+
          +0.165*[#   8]+
    |psi|^2 = 0.991
     e =     5.14237 eV
     psi = 0.165*[#   2]+0.165*[#   3]+0.165*[#   4]+0.165*[#   6]+0.165*[#   7]+
          +0.165*[#   8]+
    |psi|^2 = 0.991
     e =     6.84808 eV
     psi = 0.271*[#   1]+0.271*[#   5]+0.075*[#   2]+0.075*[#   3]+0.075*[#   4]+
          +0.075*[#   6]+0.075*[#   7]+0.075*[#   8]+
    |psi|^2 = 0.992
     e =     8.86804 eV
     psi = 0.162*[#   2]+0.162*[#   3]+0.162*[#   4]+0.162*[#   6]+0.162*[#   7]+
          +0.162*[#   8]+
    |psi|^2 = 0.973
     e =     8.86804 eV
     psi = 0.162*[#   2]+0.162*[#   3]+0.162*[#   4]+0.162*[#   6]+0.162*[#   7]+
          +0.162*[#   8]+
    |psi|^2 = 0.973
     e =     9.61492 eV
     psi = 0.127*[#   2]+0.127*[#   3]+0.127*[#   4]+0.127*[#   6]+0.127*[#   7]+
          +0.127*[#   8]+0.099*[#   1]+0.099*[#   5]+
    |psi|^2 = 0.961
     e =    13.67442 eV
     psi = 0.002*[#   1]+0.002*[#   5]+0.002*[#   2]+0.002*[#   3]+0.002*[#   4]+
          +0.002*[#   6]+0.002*[#   7]+0.002*[#   8]+
    |psi|^2 = 0.014
     e =    14.41381 eV
     psi = 
    |psi|^2 = 0.003
     e =    14.41381 eV
     psi = 
    |psi|^2 = 0.003
     e =    16.18358 eV
     psi = 0.001*[#   1]+0.001*[#   5]+
    |psi|^2 = 0.003
     e =    18.95914 eV
     psi = 
    |psi|^2 = 0.004
     e =    18.95914 eV
     psi = 
    |psi|^2 = 0.004
     e =    21.71476 eV
     psi = 0.001*[#   1]+0.001*[#   5]+
    |psi|^2 = 0.006
     e =    27.58341 eV
     psi = 0.004*[#   2]+0.004*[#   3]+0.004*[#   4]+0.004*[#   6]+0.004*[#   7]+
          +0.004*[#   8]+0.001*[#   1]+0.001*[#   5]+
    |psi|^2 = 0.026

 k =  -0.0211205604 -0.0211205604  0.0211205604
     e =    -6.97822 eV
     psi = 0.452*[#   1]+0.452*[#   5]+0.016*[#   2]+0.016*[#   3]+0.016*[#   4]+
          +0.016*[#   6]+0.016*[#   7]+0.016*[#   8]+
    |psi|^2 = 0.997
     e =     3.41433 eV
     psi = 0.184*[#   1]+0.184*[#   5]+0.104*[#   2]+0.104*[#   3]+0.104*[#   4]+
          +0.104*[#   6]+0.104*[#   7]+0.104*[#   8]+
    |psi|^2 = 0.992
     e =     5.25410 eV
     psi = 0.165*[#   2]+0.165*[#   3]+0.165*[#   4]+0.165*[#   6]+0.165*[#   7]+
          +0.165*[#   8]+
    |psi|^2 = 0.990
     e =     5.25410 eV
     psi = 0.165*[#   2]+0.165*[#   3]+0.165*[#   4]+0.165*[#   6]+0.165*[#   7]+
          +0.165*[#   8]+
    |psi|^2 = 0.990
     e =     6.89580 eV
     psi = 0.276*[#   1]+0.276*[#   5]+0.073*[#   2]+0.073*[#   3]+0.073*[#   4]+
          +0.073*[#   6]+0.073*[#   7]+0.073*[#   8]+
    |psi|^2 = 0.993
     e =     8.72206 eV
     psi = 0.163*[#   2]+0.163*[#   3]+0.163*[#   4]+0.163*[#   6]+0.163*[#   7]+
          +0.163*[#   8]+
    |psi|^2 = 0.976
     e =     8.72206 eV
     psi = 0.163*[#   2]+0.163*[#   3]+0.163*[#   4]+0.163*[#   6]+0.163*[#   7]+
          +0.163*[#   8]+
    |psi|^2 = 0.976
     e =     9.21931 eV
     psi = 0.134*[#   2]+0.134*[#   3]+0.134*[#   4]+0.134*[#   6]+0.134*[#   7]+
          +0.134*[#   8]+0.082*[#   1]+0.082*[#   5]+
    |psi|^2 = 0.968
     e =    13.38461 eV
     psi = 0.002*[#   1]+0.002*[#   5]+
    |psi|^2 = 0.010
     e =    14.56868 eV
     psi = 
    |psi|^2 = 0.002
     e =    14.56868 eV
     psi = 
    |psi|^2 = 0.002
     e =    16.31107 eV
     psi = 
    |psi|^2 = 0.004
     e =    18.49589 eV
     psi = 
    |psi|^2 = 0.005
     e =    18.49589 eV
     psi = 
    |psi|^2 = 0.005
     e =    21.24668 eV
     psi = 0.001*[#   1]+0.001*[#   5]+
    |psi|^2 = 0.005
     e =    28.25652 eV
     psi = 0.003*[#   2]+0.003*[#   3]+0.003*[#   4]+0.004*[#   6]+0.004*[#   7]+
          +0.004*[#   8]+
    |psi|^2 = 0.023

 k =  -0.0168964483 -0.0168964483  0.0168964483
     e =    -6.97149 eV
     psi = 0.466*[#   1]+0.466*[#   5]+0.011*[#   2]+0.011*[#   3]+0.011*[#   4]+
          +0.011*[#   6]+0.011*[#   7]+0.011*[#   8]+
    |psi|^2 = 0.997
     e =     3.91438 eV
     psi = 0.180*[#   1]+0.180*[#   5]+0.105*[#   2]+0.105*[#   3]+0.105*[#   4]+
          +0.105*[#   6]+0.105*[#   7]+0.105*[#   8]+
    |psi|^2 = 0.992
     e =     5.35830 eV
     psi = 0.165*[#   2]+0.165*[#   3]+0.165*[#   4]+0.165*[#   6]+0.165*[#   7]+
          +0.165*[#   8]+
    |psi|^2 = 0.989
     e =     5.35830 eV
     psi = 0.165*[#   2]+0.165*[#   3]+0.165*[#   4]+0.165*[#   6]+0.165*[#   7]+
          +0.165*[#   8]+
    |psi|^2 = 0.989
     e =     6.88906 eV
     psi = 0.289*[#   1]+0.289*[#   5]+0.069*[#   2]+0.069*[#   3]+0.069*[#   4]+
          +0.069*[#   6]+0.069*[#   7]+0.069*[#   8]+
    |psi|^2 = 0.993
     e =     8.58394 eV
     psi = 0.163*[#   2]+0.163*[#   3]+0.163*[#   4]+0.163*[#   6]+0.163*[#   7]+
          +0.163*[#   8]+
    |psi|^2 = 0.978
     e =     8.58394 eV
     psi = 0.163*[#   2]+0.163*[#   3]+0.163*[#   4]+0.163*[#   6]+0.163*[#   7]+
          +0.163*[#   8]+
    |psi|^2 = 0.978
     e =     8.86782 eV
     psi = 0.142*[#   2]+0.142*[#   3]+0.142*[#   4]+0.142*[#   6]+0.142*[#   7]+
          +0.142*[#   8]+0.059*[#   1]+0.059*[#   5]+
    |psi|^2 = 0.972
     e =    13.10473 eV
     psi = 0.002*[#   1]+0.002*[#   5]+
    |psi|^2 = 0.006
     e =    14.75322 eV
     psi = 
    |psi|^2 = 0.002
     e =    14.75322 eV
     psi = 
    |psi|^2 = 0.002
     e =    16.48222 eV
     psi = 
    |psi|^2 = 0.006
     e =    18.06313 eV
     psi = 
    |psi|^2 = 0.005
     e =    18.06313 eV
     psi = 
    |psi|^2 = 0.005
     e =    20.82067 eV
     psi = 0.002*[#   1]+0.002*[#   5]+
    |psi|^2 = 0.005
     e =    28.92705 eV
     psi = 0.003*[#   2]+0.003*[#   3]+0.003*[#   4]+0.003*[#   6]+0.003*[#   7]+
          +0.003*[#   8]+
    |psi|^2 = 0.020

 k =  -0.0126723362 -0.0126723362  0.0126723362
     e =    -6.96217 eV
     psi = 0.479*[#   1]+0.479*[#   5]+0.006*[#   2]+0.006*[#   3]+0.006*[#   4]+
          +0.006*[#   6]+0.006*[#   7]+0.006*[#   8]+
    |psi|^2 = 0.997
     e =     4.40736 eV
     psi = 0.173*[#   1]+0.173*[#   5]+0.107*[#   2]+0.107*[#   3]+0.107*[#   4]+
          +0.107*[#   6]+0.107*[#   7]+0.107*[#   8]+
    |psi|^2 = 0.991
     e =     5.44942 eV
     psi = 0.165*[#   2]+0.165*[#   3]+0.165*[#   4]+0.165*[#   6]+0.165*[#   7]+
          +0.165*[#   8]+
    |psi|^2 = 0.988
     e =     5.44942 eV
     psi = 0.165*[#   2]+0.165*[#   3]+0.165*[#   4]+0.165*[#   6]+0.165*[#   7]+
          +0.165*[#   8]+
    |psi|^2 = 0.988
     e =     6.79647 eV
     psi = 0.310*[#   1]+0.310*[#   5]+0.062*[#   2]+0.062*[#   3]+0.062*[#   4]+
          +0.062*[#   6]+0.062*[#   7]+0.062*[#   8]+
    |psi|^2 = 0.994
     e =     8.46291 eV
     psi = 0.163*[#   2]+0.163*[#   3]+0.163*[#   4]+0.163*[#   6]+0.163*[#   7]+
          +0.163*[#   8]+
    |psi|^2 = 0.979
     e =     8.46291 eV
     psi = 0.163*[#   2]+0.163*[#   3]+0.163*[#   4]+0.163*[#   6]+0.163*[#   7]+
          +0.163*[#   8]+
    |psi|^2 = 0.979
     e =     8.58958 eV
     psi = 0.152*[#   2]+0.152*[#   3]+0.152*[#   4]+0.152*[#   6]+0.152*[#   7]+
          +0.152*[#   8]+0.033*[#   1]+0.033*[#   5]+
    |psi|^2 = 0.976
     e =    12.86271 eV
     psi = 0.002*[#   1]+0.002*[#   5]+
    |psi|^2 = 0.004
     e =    14.95570 eV
     psi = 
    |psi|^2 = 0.002
     e =    14.95570 eV
     psi = 
    |psi|^2 = 0.002
     e =    16.66732 eV
     psi = 
    |psi|^2 = 0.007
     e =    17.67072 eV
     psi = 0.001*[#   2]+0.001*[#   3]+0.001*[#   4]+0.001*[#   6]+0.001*[#   7]+
          +0.001*[#   8]+
    |psi|^2 = 0.006
     e =    17.67072 eV
     psi = 0.001*[#   2]+0.001*[#   3]+0.001*[#   4]+0.001*[#   6]+0.001*[#   7]+
          +0.001*[#   8]+
    |psi|^2 = 0.006
     e =    20.44982 eV
     psi = 0.002*[#   1]+0.002*[#   5]+
    |psi|^2 = 0.005
     e =    29.59587 eV
     psi = 0.003*[#   2]+0.003*[#   3]+0.003*[#   4]+0.003*[#   6]+0.003*[#   7]+
          +0.003*[#   8]+
    |psi|^2 = 0.017

 k =  -0.0084482242 -0.0084482242  0.0084482242
     e =    -6.95322 eV
     psi = 0.490*[#   1]+0.490*[#   5]+0.003*[#   2]+0.003*[#   3]+0.003*[#   4]+
          +0.003*[#   6]+0.003*[#   7]+0.003*[#   8]+
    |psi|^2 = 0.997
     e =     4.88516 eV
     psi = 0.158*[#   1]+0.158*[#   5]+0.112*[#   2]+0.112*[#   3]+0.112*[#   4]+
          +0.112*[#   6]+0.112*[#   7]+0.112*[#   8]+
    |psi|^2 = 0.990
     e =     5.52126 eV
     psi = 0.165*[#   2]+0.165*[#   3]+0.165*[#   4]+0.165*[#   6]+0.165*[#   7]+
          +0.165*[#   8]+
    |psi|^2 = 0.987
     e =     5.52126 eV
     psi = 0.165*[#   2]+0.165*[#   3]+0.165*[#   4]+0.165*[#   6]+0.165*[#   7]+
          +0.165*[#   8]+
    |psi|^2 = 0.987
     e =     6.59668 eV
     psi = 0.336*[#   1]+0.336*[#   5]+0.053*[#   2]+0.053*[#   3]+0.053*[#   4]+
          +0.053*[#   6]+0.053*[#   7]+0.053*[#   8]+
    |psi|^2 = 0.993
     e =     8.36783 eV
     psi = 0.163*[#   2]+0.163*[#   3]+0.163*[#   4]+0.163*[#   6]+0.163*[#   7]+
          +0.163*[#   8]+
    |psi|^2 = 0.981
     e =     8.36783 eV
     psi = 0.163*[#   2]+0.163*[#   3]+0.163*[#   4]+0.163*[#   6]+0.163*[#   7]+
          +0.163*[#   8]+
    |psi|^2 = 0.981
     e =     8.40659 eV
     psi = 0.159*[#   2]+0.159*[#   3]+0.159*[#   4]+0.159*[#   6]+0.159*[#   7]+
          +0.159*[#   8]+0.012*[#   1]+0.012*[#   5]+
    |psi|^2 = 0.979
     e =    12.67711 eV
     psi = 0.002*[#   1]+0.002*[#   5]+
    |psi|^2 = 0.003
     e =    15.15638 eV
     psi = 
    |psi|^2 = 0.001
     e =    15.15638 eV
     psi = 
    |psi|^2 = 0.001
     e =    16.83726 eV
     psi = 0.001*[#   2]+0.001*[#   3]+0.001*[#   4]+0.001*[#   6]+0.001*[#   7]+
          +0.001*[#   8]+
    |psi|^2 = 0.008
     e =    17.33704 eV
     psi = 0.001*[#   2]+0.001*[#   3]+0.001*[#   4]+0.001*[#   6]+0.001*[#   7]+
          +0.001*[#   8]+
    |psi|^2 = 0.007
     e =    17.33704 eV
     psi = 0.001*[#   2]+0.001*[#   3]+0.001*[#   4]+0.001*[#   6]+0.001*[#   7]+
          +0.001*[#   8]+
    |psi|^2 = 0.007
     e =    20.15268 eV
     psi = 0.002*[#   1]+0.002*[#   5]+
    |psi|^2 = 0.005
     e =    30.25569 eV
     psi = 0.002*[#   2]+0.002*[#   3]+0.002*[#   4]+0.002*[#   6]+0.002*[#   7]+
          +0.002*[#   8]+
    |psi|^2 = 0.015

 k =  -0.0042241121 -0.0042241121  0.0042241121
     e =    -6.94691 eV
     psi = 0.496*[#   1]+0.496*[#   5]+
    |psi|^2 = 0.997
     e =     5.32468 eV
     psi = 0.128*[#   2]+0.128*[#   3]+0.128*[#   4]+0.128*[#   6]+0.128*[#   7]+
          +0.128*[#   8]+0.111*[#   1]+0.111*[#   5]+
    |psi|^2 = 0.989
     e =     5.56760 eV
     psi = 0.164*[#   2]+0.164*[#   3]+0.164*[#   4]+0.164*[#   6]+0.164*[#   7]+
          +0.164*[#   8]+
    |psi|^2 = 0.987
     e =     5.56760 eV
     psi = 0.164*[#   2]+0.164*[#   3]+0.164*[#   4]+0.164*[#   6]+0.164*[#   7]+
          +0.164*[#   8]+
    |psi|^2 = 0.987
     e =     6.31101 eV
     psi = 0.387*[#   1]+0.387*[#   5]+0.037*[#   2]+0.037*[#   3]+0.037*[#   4]+
          +0.037*[#   6]+0.037*[#   7]+0.037*[#   8]+
    |psi|^2 = 0.994
     e =     8.30679 eV
     psi = 0.164*[#   2]+0.164*[#   3]+0.164*[#   4]+0.164*[#   6]+0.164*[#   7]+
          +0.164*[#   8]+
    |psi|^2 = 0.981
     e =     8.30679 eV
     psi = 0.164*[#   2]+0.164*[#   3]+0.164*[#   4]+0.164*[#   6]+0.164*[#   7]+
          +0.164*[#   8]+
    |psi|^2 = 0.981
     e =     8.31303 eV
     psi = 0.163*[#   2]+0.163*[#   3]+0.163*[#   4]+0.163*[#   6]+0.163*[#   7]+
          +0.163*[#   8]+0.002*[#   1]+0.002*[#   5]+
    |psi|^2 = 0.981
     e =    12.56053 eV
     psi = 0.001*[#   1]+0.001*[#   5]+
    |psi|^2 = 0.003
     e =    15.31787 eV
     psi = 
    |psi|^2 = 0.000
     e =    15.31787 eV
     psi = 
    |psi|^2 = 0.000
     e =    16.95956 eV
     psi = 0.001*[#   2]+0.001*[#   3]+0.001*[#   4]+0.001*[#   6]+0.001*[#   7]+
          +0.001*[#   8]+
    |psi|^2 = 0.008
     e =    17.09646 eV
     psi = 0.001*[#   2]+0.001*[#   3]+0.001*[#   4]+0.001*[#   6]+0.001*[#   7]+
          +0.001*[#   8]+
    |psi|^2 = 0.008
     e =    17.09646 eV
     psi = 0.001*[#   2]+0.001*[#   3]+0.001*[#   4]+0.001*[#   6]+0.001*[#   7]+
          +0.001*[#   8]+
    |psi|^2 = 0.008
     e =    19.95545 eV
     psi = 0.002*[#   1]+0.002*[#   5]+
    |psi|^2 = 0.004
     e =    30.88218 eV
     psi = 0.002*[#   2]+0.002*[#   3]+0.002*[#   4]+0.002*[#   6]+0.002*[#   7]+
          +0.002*[#   8]+
    |psi|^2 = 0.014

 k =   0.0000000000  0.0000000000  0.0000000000
     e =    -6.94465 eV
     psi = 0.499*[#   1]+0.499*[#   5]+
    |psi|^2 = 0.997
     e =     5.58365 eV
     psi = 0.164*[#   2]+0.164*[#   3]+0.164*[#   4]+0.164*[#   6]+0.164*[#   7]+
          +0.164*[#   8]+
    |psi|^2 = 0.986
     e =     5.58365 eV
     psi = 0.164*[#   2]+0.164*[#   3]+0.164*[#   4]+0.164*[#   6]+0.164*[#   7]+
          +0.164*[#   8]+
    |psi|^2 = 0.986
     e =     5.58365 eV
     psi = 0.164*[#   2]+0.164*[#   3]+0.164*[#   4]+0.164*[#   6]+0.164*[#   7]+
          +0.164*[#   8]+
    |psi|^2 = 0.986
     e =     6.10006 eV
     psi = 0.498*[#   1]+0.498*[#   5]+
    |psi|^2 = 0.996
     e =     8.28572 eV
     psi = 0.164*[#   2]+0.164*[#   3]+0.164*[#   4]+0.164*[#   6]+0.164*[#   7]+
          +0.164*[#   8]+
    |psi|^2 = 0.981
     e =     8.28572 eV
     psi = 0.164*[#   2]+0.164*[#   3]+0.164*[#   4]+0.164*[#   6]+0.164*[#   7]+
          +0.164*[#   8]+
    |psi|^2 = 0.981
     e =     8.28572 eV
     psi = 0.164*[#   2]+0.164*[#   3]+0.164*[#   4]+0.164*[#   6]+0.164*[#   7]+
          +0.164*[#   8]+
    |psi|^2 = 0.981
     e =    12.52077 eV
     psi = 0.001*[#   1]+0.001*[#   5]+
    |psi|^2 = 0.003
     e =    15.38331 eV
     psi = 
    |psi|^2 = 0.000
     e =    15.38331 eV
     psi = 
    |psi|^2 = 0.000
     e =    17.00477 eV
     psi = 0.001*[#   2]+0.001*[#   3]+0.001*[#   4]+0.001*[#   6]+0.001*[#   7]+
          +0.001*[#   8]+
    |psi|^2 = 0.009
     e =    17.00477 eV
     psi = 0.001*[#   2]+0.001*[#   3]+0.001*[#   4]+0.001*[#   6]+0.001*[#   7]+
          +0.001*[#   8]+
    |psi|^2 = 0.009
     e =    17.00477 eV
     psi = 0.001*[#   2]+0.001*[#   3]+0.001*[#   4]+0.001*[#   6]+0.001*[#   7]+
          +0.001*[#   8]+
    |psi|^2 = 0.009
     e =    19.88552 eV
     psi = 0.002*[#   1]+0.002*[#   5]+
    |psi|^2 = 0.004
     e =    31.30017 eV
     psi = 0.003*[#   2]+0.003*[#   3]+0.003*[#   4]+0.003*[#   6]+0.003*[#   7]+
          +0.003*[#   8]+
    |psi|^2 = 0.015

 k =   0.0000000000  0.0000000000  0.0061176796
     e =    -6.94624 eV
     psi = 0.497*[#   1]+0.497*[#   5]+
    |psi|^2 = 0.997
     e =     5.41171 eV
     psi = 0.131*[#   2]+0.131*[#   3]+0.131*[#   4]+0.131*[#   6]+0.131*[#   7]+
          +0.131*[#   8]+0.102*[#   1]+0.102*[#   5]+
    |psi|^2 = 0.988
     e =     5.55701 eV
     psi = 0.164*[#   2]+0.164*[#   3]+0.164*[#   4]+0.164*[#   6]+0.164*[#   7]+
          +0.164*[#   8]+
    |psi|^2 = 0.987
     e =     5.55701 eV
     psi = 0.164*[#   2]+0.164*[#   3]+0.164*[#   4]+0.164*[#   6]+0.164*[#   7]+
          +0.164*[#   8]+
    |psi|^2 = 0.987
     e =     6.27033 eV
     psi = 0.396*[#   1]+0.396*[#   5]+0.034*[#   2]+0.034*[#   3]+0.034*[#   4]+
          +0.034*[#   6]+0.034*[#   7]+0.034*[#   8]+
    |psi|^2 = 0.994
     e =     8.26772 eV
     psi = 0.163*[#   2]+0.163*[#   3]+0.163*[#   4]+0.163*[#   6]+0.163*[#   7]+
          +0.163*[#   8]+0.002*[#   1]+0.002*[#   5]+
    |psi|^2 = 0.981
     e =     8.31848 eV
     psi = 0.164*[#   2]+0.164*[#   3]+0.164*[#   4]+0.164*[#   6]+0.164*[#   7]+
          +0.164*[#   8]+
    |psi|^2 = 0.981
     e =     8.31848 eV
     psi = 0.164*[#   2]+0.164*[#   3]+0.164*[#   4]+0.164*[#   6]+0.164*[#   7]+
          +0.164*[#   8]+
    |psi|^2 = 0.981
     e =    12.54860 eV
     psi = 0.001*[#   1]+0.001*[#   5]+
    |psi|^2 = 0.003
     e =    15.28623 eV
     psi = 
    |psi|^2 = 0.001
     e =    15.38884 eV
     psi = 
    |psi|^2 = 0.000
     e =    17.01490 eV
     psi = 0.001*[#   2]+0.001*[#   3]+0.001*[#   4]+0.001*[#   6]+0.001*[#   7]+
          +0.001*[#   8]+
    |psi|^2 = 0.009
     e =    17.01490 eV
     psi = 0.001*[#   2]+0.001*[#   3]+0.001*[#   4]+0.001*[#   6]+0.001*[#   7]+
          +0.001*[#   8]+
    |psi|^2 = 0.009
     e =    17.08026 eV
     psi = 0.001*[#   2]+0.001*[#   3]+0.001*[#   4]+0.001*[#   6]+0.001*[#   7]+
          +0.001*[#   8]+
    |psi|^2 = 0.008
     e =    19.93526 eV
     psi = 0.002*[#   1]+0.002*[#   5]+
    |psi|^2 = 0.004
     e =    31.04152 eV
     psi = 0.002*[#   2]+0.002*[#   3]+0.002*[#   4]+0.002*[#   6]+0.002*[#   7]+
          +0.002*[#   8]+
    |psi|^2 = 0.014

 k =   0.0000000000  0.0000000000  0.0122353591
     e =    -6.95079 eV
     psi = 0.492*[#   1]+0.492*[#   5]+0.002*[#   2]+0.002*[#   3]+0.002*[#   4]+
          +0.002*[#   6]+0.002*[#   7]+0.002*[#   8]+
    |psi|^2 = 0.997
     e =     5.10647 eV
     psi = 0.167*[#   1]+0.167*[#   5]+0.109*[#   2]+0.109*[#   3]+0.109*[#   4]+
          +0.109*[#   6]+0.109*[#   7]+0.109*[#   8]+
    |psi|^2 = 0.990
     e =     5.48081 eV
     psi = 0.165*[#   2]+0.165*[#   3]+0.165*[#   4]+0.165*[#   6]+0.165*[#   7]+
          +0.165*[#   8]+
    |psi|^2 = 0.987
     e =     5.48081 eV
     psi = 0.165*[#   2]+0.165*[#   3]+0.165*[#   4]+0.165*[#   6]+0.165*[#   7]+
          +0.165*[#   8]+
    |psi|^2 = 0.987
     e =     6.57022 eV
     psi = 0.331*[#   1]+0.331*[#   5]+0.055*[#   2]+0.055*[#   3]+0.055*[#   4]+
          +0.055*[#   6]+0.055*[#   7]+0.055*[#   8]+
    |psi|^2 = 0.993
     e =     8.21525 eV
     psi = 0.162*[#   2]+0.162*[#   3]+0.162*[#   4]+0.162*[#   6]+0.162*[#   7]+
          +0.162*[#   8]+0.006*[#   1]+0.006*[#   5]+
    |psi|^2 = 0.981
     e =     8.41301 eV
     psi = 0.163*[#   2]+0.163*[#   3]+0.163*[#   4]+0.163*[#   6]+0.163*[#   7]+
          +0.163*[#   8]+
    |psi|^2 = 0.980
     e =     8.41301 eV
     psi = 0.163*[#   2]+0.163*[#   3]+0.163*[#   4]+0.163*[#   6]+0.163*[#   7]+
          +0.163*[#   8]+
    |psi|^2 = 0.980
     e =    12.63060 eV
     psi = 0.001*[#   1]+0.001*[#   5]+
    |psi|^2 = 0.003
     e =    15.04205 eV
     psi = 
    |psi|^2 = 0.001
     e =    15.40544 eV
     psi = 
    |psi|^2 = 0.000
     e =    17.04528 eV
     psi = 0.001*[#   2]+0.001*[#   3]+0.001*[#   4]+0.001*[#   6]+0.001*[#   7]+
          +0.001*[#   8]+
    |psi|^2 = 0.008
     e =    17.04528 eV
     psi = 0.001*[#   2]+0.001*[#   3]+0.001*[#   4]+0.001*[#   6]+0.001*[#   7]+
          +0.001*[#   8]+
    |psi|^2 = 0.008
     e =    17.26028 eV
     psi = 0.001*[#   2]+0.001*[#   3]+0.001*[#   4]+0.001*[#   6]+0.001*[#   7]+
          +0.001*[#   8]+
    |psi|^2 = 0.006
     e =    20.08420 eV
     psi = 0.002*[#   1]+0.002*[#   5]+
    |psi|^2 = 0.004
     e =    30.58274 eV
     psi = 0.002*[#   2]+0.002*[#   3]+0.002*[#   4]+0.002*[#   6]+0.002*[#   7]+
          +0.002*[#   8]+
    |psi|^2 = 0.014

 k =   0.0000000000  0.0000000000  0.0183530387
     e =    -6.95763 eV
     psi = 0.485*[#   1]+0.485*[#   5]+0.005*[#   2]+0.005*[#   3]+0.005*[#   4]+
          +0.005*[#   6]+0.005*[#   7]+0.005*[#   8]+
    |psi|^2 = 0.997
     e =     4.77699 eV
     psi = 0.197*[#   1]+0.197*[#   5]+0.099*[#   2]+0.099*[#   3]+0.099*[#   4]+
          +0.099*[#   6]+0.099*[#   7]+0.099*[#   8]+
    |psi|^2 = 0.991
     e =     5.36431 eV
     psi = 0.165*[#   2]+0.165*[#   3]+0.165*[#   4]+0.165*[#   6]+0.165*[#   7]+
          +0.165*[#   8]+
    |psi|^2 = 0.988
     e =     5.36431 eV
     psi = 0.165*[#   2]+0.165*[#   3]+0.165*[#   4]+0.165*[#   6]+0.165*[#   7]+
          +0.165*[#   8]+
    |psi|^2 = 0.988
     e =     6.88957 eV
     psi = 0.301*[#   1]+0.301*[#   5]+0.065*[#   2]+0.065*[#   3]+0.065*[#   4]+
          +0.065*[#   6]+0.065*[#   7]+0.065*[#   8]+
    |psi|^2 = 0.993
     e =     8.13237 eV
     psi = 0.159*[#   2]+0.159*[#   3]+0.159*[#   4]+0.159*[#   6]+0.159*[#   7]+
          +0.159*[#   8]+0.013*[#   1]+0.013*[#   5]+
    |psi|^2 = 0.981
     e =     8.56002 eV
     psi = 0.163*[#   2]+0.163*[#   3]+0.163*[#   4]+0.163*[#   6]+0.163*[#   7]+
          +0.163*[#   8]+
    |psi|^2 = 0.978
     e =     8.56002 eV
     psi = 0.163*[#   2]+0.163*[#   3]+0.163*[#   4]+0.163*[#   6]+0.163*[#   7]+
          +0.163*[#   8]+
    |psi|^2 = 0.978
     e =    12.76277 eV
     psi = 0.002*[#   1]+0.002*[#   5]+
    |psi|^2 = 0.003
     e =    14.72441 eV
     psi = 
    |psi|^2 = 0.002
     e =    15.43309 eV
     psi = 
    |psi|^2 = 0.000
     e =    17.09597 eV
     psi = 0.001*[#   2]+0.001*[#   3]+0.001*[#   4]+0.001*[#   6]+0.001*[#   7]+
          +0.001*[#   8]+
    |psi|^2 = 0.008
     e =    17.09597 eV
     psi = 0.001*[#   2]+0.001*[#   3]+0.001*[#   4]+0.001*[#   6]+0.001*[#   7]+
          +0.001*[#   8]+
    |psi|^2 = 0.008
     e =    17.47449 eV
     psi = 
    |psi|^2 = 0.005
     e =    20.33006 eV
     psi = 0.002*[#   1]+0.002*[#   5]+
    |psi|^2 = 0.005
     e =    30.07354 eV
     psi = 0.002*[#   2]+0.002*[#   3]+0.002*[#   4]+0.002*[#   6]+0.002*[#   7]+
          +0.002*[#   8]+
    |psi|^2 = 0.014

 k =   0.0000000000  0.0000000000  0.0244707182
     e =    -6.96568 eV
     psi = 0.475*[#   1]+0.475*[#   5]+0.008*[#   2]+0.008*[#   3]+0.008*[#   4]+
          +0.008*[#   6]+0.008*[#   7]+0.008*[#   8]+
    |psi|^2 = 0.997
     e =     4.44082 eV
     psi = 0.214*[#   1]+0.214*[#   5]+0.094*[#   2]+0.094*[#   3]+0.094*[#   4]+
          +0.094*[#   6]+0.094*[#   7]+0.094*[#   8]+
    |psi|^2 = 0.991
     e =     5.21841 eV
     psi = 0.165*[#   2]+0.165*[#   3]+0.165*[#   4]+0.165*[#   6]+0.165*[#   7]+
          +0.165*[#   8]+
    |psi|^2 = 0.989
     e =     5.21841 eV
     psi = 0.165*[#   2]+0.165*[#   3]+0.165*[#   4]+0.165*[#   6]+0.165*[#   7]+
          +0.165*[#   8]+
    |psi|^2 = 0.989
     e =     7.20895 eV
     psi = 0.283*[#   1]+0.283*[#   5]+0.071*[#   2]+0.071*[#   3]+0.071*[#   4]+
          +0.071*[#   6]+0.071*[#   7]+0.071*[#   8]+
    |psi|^2 = 0.993
     e =     8.02473 eV
     psi = 0.156*[#   2]+0.156*[#   3]+0.156*[#   4]+0.156*[#   6]+0.156*[#   7]+
          +0.156*[#   8]+0.023*[#   1]+0.023*[#   5]+
    |psi|^2 = 0.981
     e =     8.74875 eV
     psi = 0.163*[#   2]+0.163*[#   3]+0.163*[#   4]+0.163*[#   6]+0.163*[#   7]+
          +0.163*[#   8]+
    |psi|^2 = 0.977
     e =     8.74875 eV
     psi = 0.163*[#   2]+0.163*[#   3]+0.163*[#   4]+0.163*[#   6]+0.163*[#   7]+
          +0.163*[#   8]+
    |psi|^2 = 0.977
     e =    12.93967 eV
     psi = 0.002*[#   1]+0.002*[#   5]+
    |psi|^2 = 0.003
     e =    14.38055 eV
     psi = 
    |psi|^2 = 0.002
     e =    15.47188 eV
     psi = 
    |psi|^2 = 0.000
     e =    17.16716 eV
     psi = 0.001*[#   2]+0.001*[#   3]+0.001*[#   4]+0.001*[#   6]+0.001*[#   7]+
          +0.001*[#   8]+
    |psi|^2 = 0.008
     e =    17.16716 eV
     psi = 0.001*[#   2]+0.001*[#   3]+0.001*[#   4]+0.001*[#   6]+0.001*[#   7]+
          +0.001*[#   8]+
    |psi|^2 = 0.008
     e =    17.68689 eV
     psi = 
    |psi|^2 = 0.004
     e =    20.66633 eV
     psi = 0.002*[#   1]+0.002*[#   5]+
    |psi|^2 = 0.005
     e =    29.54313 eV
     psi = 0.003*[#   2]+0.003*[#   3]+0.003*[#   4]+0.003*[#   6]+0.003*[#   7]+
          +0.003*[#   8]+
    |psi|^2 = 0.016

 k =   0.0000000000  0.0000000000  0.0305883978
     e =    -6.97354 eV
     psi = 0.464*[#   1]+0.464*[#   5]+0.012*[#   2]+0.012*[#   3]+0.012*[#   4]+
          +0.012*[#   6]+0.012*[#   7]+0.012*[#   8]+
    |psi|^2 = 0.997
     e =     4.10236 eV
     psi = 0.226*[#   1]+0.226*[#   5]+0.090*[#   2]+0.090*[#   3]+0.090*[#   4]+
          +0.090*[#   6]+0.090*[#   7]+0.090*[#   8]+
    |psi|^2 = 0.992
     e =     5.05261 eV
     psi = 0.165*[#   2]+0.165*[#   3]+0.165*[#   4]+0.165*[#   6]+0.165*[#   7]+
          +0.165*[#   8]+
    |psi|^2 = 0.990
     e =     5.05261 eV
     psi = 0.165*[#   2]+0.165*[#   3]+0.165*[#   4]+0.165*[#   6]+0.165*[#   7]+
          +0.165*[#   8]+
    |psi|^2 = 0.990
     e =     7.52070 eV
     psi = 0.271*[#   1]+0.271*[#   5]+0.075*[#   2]+0.075*[#   3]+0.075*[#   4]+
          +0.075*[#   6]+0.075*[#   7]+0.075*[#   8]+
    |psi|^2 = 0.993
     e =     7.89837 eV
     psi = 0.152*[#   2]+0.152*[#   3]+0.152*[#   4]+0.152*[#   6]+0.152*[#   7]+
          +0.152*[#   8]+0.034*[#   1]+0.034*[#   5]+
    |psi|^2 = 0.980
     e =     8.96893 eV
     psi = 0.162*[#   2]+0.162*[#   3]+0.162*[#   4]+0.162*[#   6]+0.162*[#   7]+
          +0.162*[#   8]+
    |psi|^2 = 0.974
     e =     8.96893 eV
     psi = 0.162*[#   2]+0.162*[#   3]+0.162*[#   4]+0.162*[#   6]+0.162*[#   7]+
          +0.162*[#   8]+
    |psi|^2 = 0.974
     e =    13.15514 eV
     psi = 0.002*[#   1]+0.002*[#   5]+
    |psi|^2 = 0.003
     e =    14.03309 eV
     psi = 
    |psi|^2 = 0.003
     e =    15.52165 eV
     psi = 
    |psi|^2 = 0.000
     e =    17.25817 eV
     psi = 0.001*[#   2]+0.001*[#   3]+0.001*[#   4]+0.001*[#   6]+0.001*[#   7]+
          +0.001*[#   8]+
    |psi|^2 = 0.007
     e =    17.25817 eV
     psi = 0.001*[#   2]+0.001*[#   3]+0.001*[#   4]+0.001*[#   6]+0.001*[#   7]+
          +0.001*[#   8]+
    |psi|^2 = 0.007
     e =    17.88351 eV
     psi = 
    |psi|^2 = 0.003
     e =    21.08105 eV
     psi = 0.001*[#   1]+0.001*[#   5]+
    |psi|^2 = 0.005
     e =    28.99894 eV
     psi = 0.003*[#   2]+0.003*[#   3]+0.003*[#   4]+0.003*[#   6]+0.003*[#   7]+
          +0.003*[#   8]+
    |psi|^2 = 0.017

 k =   0.0000000000  0.0000000000  0.0367060774
     e =    -6.97941 eV
     psi = 0.451*[#   1]+0.451*[#   5]+0.016*[#   2]+0.016*[#   3]+0.016*[#   4]+
          +0.016*[#   6]+0.016*[#   7]+0.016*[#   8]+
    |psi|^2 = 0.997
     e =     3.76366 eV
     psi = 0.235*[#   1]+0.235*[#   5]+0.087*[#   2]+0.087*[#   3]+0.087*[#   4]+
          +0.087*[#   6]+0.087*[#   7]+0.087*[#   8]+
    |psi|^2 = 0.992
     e =     4.87487 eV
     psi = 0.165*[#   2]+0.165*[#   3]+0.165*[#   4]+0.165*[#   6]+0.165*[#   7]+
          +0.165*[#   8]+
    |psi|^2 = 0.991
     e =     4.87487 eV
     psi = 0.165*[#   2]+0.165*[#   3]+0.165*[#   4]+0.165*[#   6]+0.165*[#   7]+
          +0.165*[#   8]+
    |psi|^2 = 0.991
     e =     7.75913 eV
     psi = 0.148*[#   2]+0.148*[#   3]+0.148*[#   4]+0.148*[#   6]+0.148*[#   7]+
          +0.148*[#   8]+0.046*[#   1]+0.046*[#   5]+
    |psi|^2 = 0.980
     e =     7.81868 eV
     psi = 0.262*[#   1]+0.262*[#   5]+0.078*[#   2]+0.078*[#   3]+0.078*[#   4]+
          +0.078*[#   6]+0.078*[#   7]+0.078*[#   8]+
    |psi|^2 = 0.993
     e =     9.21308 eV
     psi = 0.162*[#   2]+0.162*[#   3]+0.162*[#   4]+0.162*[#   6]+0.162*[#   7]+
          +0.162*[#   8]+
    |psi|^2 = 0.972
     e =     9.21308 eV
     psi = 0.162*[#   2]+0.162*[#   3]+0.162*[#   4]+0.162*[#   6]+0.162*[#   7]+
          +0.162*[#   8]+
    |psi|^2 = 0.972
     e =    13.40367 eV
     psi = 0.001*[#   1]+0.001*[#   5]+
    |psi|^2 = 0.003
     e =    13.70042 eV
     psi = 0.001*[#   1]+0.001*[#   5]+
    |psi|^2 = 0.003
     e =    15.58248 eV
     psi = 
    |psi|^2 = 0.000
     e =    17.37025 eV
     psi = 0.001*[#   2]+0.001*[#   3]+0.001*[#   4]+0.001*[#   6]+0.001*[#   7]+
          +0.001*[#   8]+
    |psi|^2 = 0.007
     e =    17.37025 eV
     psi = 0.001*[#   2]+0.001*[#   3]+0.001*[#   4]+0.001*[#   6]+0.001*[#   7]+
          +0.001*[#   8]+
    |psi|^2 = 0.007
     e =    18.06872 eV
     psi = 
    |psi|^2 = 0.002
     e =    21.56126 eV
     psi = 0.001*[#   1]+0.001*[#   5]+
    |psi|^2 = 0.005
     e =    28.45523 eV
     psi = 0.003*[#   2]+0.003*[#   3]+0.003*[#   4]+0.003*[#   6]+0.003*[#   7]+
          +0.003*[#   8]+
    |psi|^2 = 0.019

 k =   0.0000000000  0.0000000000  0.0428237569
     e =    -6.98135 eV
     psi = 0.438*[#   1]+0.438*[#   5]+0.020*[#   2]+0.020*[#   3]+0.020*[#   4]+
          +0.020*[#   6]+0.020*[#   7]+0.020*[#   8]+
    |psi|^2 = 0.997
     e =     3.42534 eV
     psi = 0.242*[#   1]+0.242*[#   5]+0.085*[#   2]+0.085*[#   3]+0.085*[#   4]+
          +0.085*[#   6]+0.085*[#   7]+0.085*[#   8]+
    |psi|^2 = 0.993
     e =     4.69059 eV
     psi = 0.165*[#   2]+0.165*[#   3]+0.165*[#   4]+0.165*[#   6]+0.165*[#   7]+
          +0.165*[#   8]+
    |psi|^2 = 0.992
     e =     4.69059 eV
     psi = 0.165*[#   2]+0.165*[#   3]+0.165*[#   4]+0.165*[#   6]+0.165*[#   7]+
          +0.165*[#   8]+
    |psi|^2 = 0.992
     e =     7.61205 eV
     psi = 0.144*[#   2]+0.144*[#   3]+0.144*[#   4]+0.144*[#   6]+0.144*[#   7]+
          +0.144*[#   8]+0.059*[#   1]+0.059*[#   5]+
    |psi|^2 = 0.980
     e =     8.09584 eV
     psi = 0.253*[#   1]+0.253*[#   5]+0.081*[#   2]+0.081*[#   3]+0.081*[#   4]+
          +0.081*[#   6]+0.081*[#   7]+0.081*[#   8]+
    |psi|^2 = 0.991
     e =     9.47578 eV
     psi = 0.161*[#   2]+0.161*[#   3]+0.161*[#   4]+0.161*[#   6]+0.161*[#   7]+
          +0.161*[#   8]+
    |psi|^2 = 0.969
     e =     9.47578 eV
     psi = 0.161*[#   2]+0.161*[#   3]+0.161*[#   4]+0.161*[#   6]+0.161*[#   7]+
          +0.161*[#   8]+
    |psi|^2 = 0.969
     e =    13.39470 eV
     psi = 0.003*[#   1]+0.003*[#   5]+
    |psi|^2 = 0.005
     e =    13.68046 eV
     psi = 0.001*[#   1]+0.001*[#   5]+
    |psi|^2 = 0.003
     e =    15.65445 eV
     psi = 
    |psi|^2 = 0.000
     e =    17.50349 eV
     psi = 
    |psi|^2 = 0.006
     e =    17.50349 eV
     psi = 
    |psi|^2 = 0.006
     e =    18.24611 eV
     psi = 
    |psi|^2 = 0.002
     e =    22.09314 eV
     psi = 0.001*[#   1]+0.001*[#   5]+
    |psi|^2 = 0.005
     e =    27.91317 eV
     psi = 0.004*[#   2]+0.004*[#   3]+0.004*[#   4]+0.004*[#   6]+0.004*[#   7]+
          +0.004*[#   8]+
    |psi|^2 = 0.021

 k =   0.0000000000  0.0000000000  0.0489414365
     e =    -6.97728 eV
     psi = 0.424*[#   1]+0.424*[#   5]+0.025*[#   2]+0.025*[#   3]+0.025*[#   4]+
          +0.025*[#   6]+0.025*[#   7]+0.025*[#   8]+
    |psi|^2 = 0.997
     e =     3.08807 eV
     psi = 0.248*[#   1]+0.248*[#   5]+0.083*[#   2]+0.083*[#   3]+0.083*[#   4]+
          +0.083*[#   6]+0.083*[#   7]+0.083*[#   8]+
    |psi|^2 = 0.993
     e =     4.50382 eV
     psi = 0.166*[#   2]+0.166*[#   3]+0.166*[#   4]+0.166*[#   6]+0.166*[#   7]+
          +0.166*[#   8]+
    |psi|^2 = 0.993
     e =     4.50382 eV
     psi = 0.166*[#   2]+0.166*[#   3]+0.166*[#   4]+0.166*[#   6]+0.166*[#   7]+
          +0.166*[#   8]+
    |psi|^2 = 0.993
     e =     7.46136 eV
     psi = 0.139*[#   2]+0.139*[#   3]+0.139*[#   4]+0.139*[#   6]+0.139*[#   7]+
          +0.139*[#   8]+0.073*[#   1]+0.073*[#   5]+
    |psi|^2 = 0.979
     e =     8.34313 eV
     psi = 0.245*[#   1]+0.245*[#   5]+0.083*[#   2]+0.083*[#   3]+0.083*[#   4]+
          +0.083*[#   6]+0.083*[#   7]+0.083*[#   8]+
    |psi|^2 = 0.986
     e =     9.75227 eV
     psi = 0.161*[#   2]+0.161*[#   3]+0.161*[#   4]+0.161*[#   6]+0.161*[#   7]+
          +0.161*[#   8]+
    |psi|^2 = 0.965
     e =     9.75227 eV
     psi = 0.161*[#   2]+0.161*[#   3]+0.161*[#   4]+0.161*[#   6]+0.161*[#   7]+
          +0.161*[#   8]+
    |psi|^2 = 0.965
     e =    13.12738 eV
     psi = 0.005*[#   1]+0.005*[#   5]+
    |psi|^2 = 0.011
     e =    13.98093 eV
     psi = 0.001*[#   1]+0.001*[#   5]+
    |psi|^2 = 0.003
     e =    15.73987 eV
     psi = 
    |psi|^2 = 0.000
     e =    17.65698 eV
     psi = 
    |psi|^2 = 0.005
     e =    17.65698 eV
     psi = 
    |psi|^2 = 0.005
     e =    18.42284 eV
     psi = 
    |psi|^2 = 0.002
     e =    22.66663 eV
     psi = 
    |psi|^2 = 0.004
     e =    27.37137 eV
     psi = 0.004*[#   2]+0.004*[#   3]+0.004*[#   4]+0.004*[#   6]+0.004*[#   7]+
          +0.004*[#   8]+
    |psi|^2 = 0.024

 k =   0.0000000000  0.0000000000  0.0550591160
     e =    -6.96503 eV
     psi = 0.411*[#   1]+0.411*[#   5]+0.029*[#   2]+0.029*[#   3]+0.029*[#   4]+
          +0.029*[#   6]+0.029*[#   7]+0.029*[#   8]+
    |psi|^2 = 0.997
     e =     2.75199 eV
     psi = 0.254*[#   1]+0.254*[#   5]+0.081*[#   2]+0.081*[#   3]+0.081*[#   4]+
          +0.081*[#   6]+0.081*[#   7]+0.081*[#   8]+
    |psi|^2 = 0.994
     e =     4.31751 eV
     psi = 0.166*[#   2]+0.166*[#   3]+0.166*[#   4]+0.166*[#   6]+0.166*[#   7]+
          +0.166*[#   8]+
    |psi|^2 = 0.994
     e =     4.31751 eV
     psi = 0.166*[#   2]+0.166*[#   3]+0.166*[#   4]+0.166*[#   6]+0.166*[#   7]+
          +0.166*[#   8]+
    |psi|^2 = 0.994
     e =     7.31059 eV
     psi = 0.135*[#   2]+0.135*[#   3]+0.135*[#   4]+0.135*[#   6]+0.135*[#   7]+
          +0.135*[#   8]+0.086*[#   1]+0.086*[#   5]+
    |psi|^2 = 0.978
     e =     8.54955 eV
     psi = 0.236*[#   1]+0.236*[#   5]+0.084*[#   2]+0.084*[#   3]+0.084*[#   4]+
          +0.084*[#   6]+0.084*[#   7]+0.084*[#   8]+
    |psi|^2 = 0.975
     e =    10.03946 eV
     psi = 0.160*[#   2]+0.160*[#   3]+0.160*[#   4]+0.160*[#   6]+0.160*[#   7]+
          +0.160*[#   8]+
    |psi|^2 = 0.962
     e =    10.03946 eV
     psi = 0.160*[#   2]+0.160*[#   3]+0.160*[#   4]+0.160*[#   6]+0.160*[#   7]+
          +0.160*[#   8]+
    |psi|^2 = 0.962
     e =    12.91447 eV
     psi = 0.009*[#   1]+0.009*[#   5]+
    |psi|^2 = 0.022
     e =    14.30156 eV
     psi = 0.001*[#   1]+0.001*[#   5]+
    |psi|^2 = 0.003
     e =    15.83383 eV
     psi = 
    |psi|^2 = 0.000
     e =    17.83133 eV
     psi = 
    |psi|^2 = 0.005
     e =    17.83133 eV
     psi = 
    |psi|^2 = 0.005
     e =    18.60374 eV
     psi = 
    |psi|^2 = 0.001
     e =    23.27359 eV
     psi = 
    |psi|^2 = 0.004
     e =    26.83586 eV
     psi = 0.004*[#   2]+0.004*[#   3]+0.004*[#   4]+0.004*[#   6]+0.004*[#   7]+
          +0.004*[#   8]+
    |psi|^2 = 0.027

 k =   0.0000000000  0.0000000000  0.0611767956
     e =    -6.94247 eV
     psi = 0.398*[#   1]+0.398*[#   5]+0.033*[#   2]+0.033*[#   3]+0.033*[#   4]+
          +0.033*[#   6]+0.033*[#   7]+0.033*[#   8]+
    |psi|^2 = 0.997
     e =     2.41727 eV
     psi = 0.258*[#   1]+0.258*[#   5]+0.080*[#   2]+0.080*[#   3]+0.080*[#   4]+
          +0.080*[#   6]+0.080*[#   7]+0.080*[#   8]+
    |psi|^2 = 0.994
     e =     4.13379 eV
     psi = 0.166*[#   2]+0.166*[#   3]+0.166*[#   4]+0.166*[#   6]+0.166*[#   7]+
          +0.166*[#   8]+
    |psi|^2 = 0.995
     e =     4.13379 eV
     psi = 0.166*[#   2]+0.166*[#   3]+0.166*[#   4]+0.166*[#   6]+0.166*[#   7]+
          +0.166*[#   8]+
    |psi|^2 = 0.995
     e =     7.16259 eV
     psi = 0.130*[#   2]+0.130*[#   3]+0.130*[#   4]+0.130*[#   6]+0.130*[#   7]+
          +0.130*[#   8]+0.098*[#   1]+0.098*[#   5]+
    |psi|^2 = 0.978
     e =     8.70296 eV
     psi = 0.225*[#   1]+0.225*[#   5]+0.084*[#   2]+0.084*[#   3]+0.084*[#   4]+
          +0.084*[#   6]+0.084*[#   7]+0.084*[#   8]+
    |psi|^2 = 0.955
     e =    10.33553 eV
     psi = 0.160*[#   2]+0.160*[#   3]+0.160*[#   4]+0.160*[#   6]+0.160*[#   7]+
          +0.160*[#   8]+
    |psi|^2 = 0.958
     e =    10.33553 eV
     psi = 0.160*[#   2]+0.160*[#   3]+0.160*[#   4]+0.160*[#   6]+0.160*[#   7]+
          +0.160*[#   8]+
    |psi|^2 = 0.958
     e =    12.76867 eV
     psi = 0.015*[#   1]+0.015*[#   5]+0.002*[#   2]+0.002*[#   3]+0.002*[#   4]+
          +0.002*[#   6]+0.002*[#   7]+0.002*[#   8]+
    |psi|^2 = 0.042
     e =    14.63961 eV
     psi = 0.001*[#   1]+0.001*[#   5]+
    |psi|^2 = 0.003
     e =    15.93941 eV
     psi = 
    |psi|^2 = 0.000
     e =    18.02719 eV
     psi = 
    |psi|^2 = 0.004
     e =    18.02719 eV
     psi = 
    |psi|^2 = 0.004
     e =    18.79285 eV
     psi = 
    |psi|^2 = 0.001
     e =    23.90835 eV
     psi = 
    |psi|^2 = 0.004
     e =    26.30801 eV
     psi = 0.005*[#   2]+0.005*[#   3]+0.005*[#   4]+0.005*[#   6]+0.005*[#   7]+
          +0.005*[#   8]+
    |psi|^2 = 0.030

 k =   0.0000000000  0.0000000000  0.0672944751
     e =    -6.90767 eV
     psi = 0.386*[#   1]+0.386*[#   5]+0.038*[#   2]+0.038*[#   3]+0.038*[#   4]+
          +0.038*[#   6]+0.038*[#   7]+0.038*[#   8]+
    |psi|^2 = 0.997
     e =     2.08400 eV
     psi = 0.262*[#   1]+0.262*[#   5]+0.078*[#   2]+0.078*[#   3]+0.078*[#   4]+
          +0.078*[#   6]+0.078*[#   7]+0.078*[#   8]+
    |psi|^2 = 0.995
     e =     3.95424 eV
     psi = 0.166*[#   2]+0.166*[#   3]+0.166*[#   4]+0.166*[#   6]+0.166*[#   7]+
          +0.166*[#   8]+
    |psi|^2 = 0.995
     e =     3.95424 eV
     psi = 0.166*[#   2]+0.166*[#   3]+0.166*[#   4]+0.166*[#   6]+0.166*[#   7]+
          +0.166*[#   8]+
    |psi|^2 = 0.995
     e =     7.01958 eV
     psi = 0.126*[#   2]+0.126*[#   3]+0.126*[#   4]+0.126*[#   6]+0.126*[#   7]+
          +0.126*[#   8]+0.110*[#   1]+0.110*[#   5]+
    |psi|^2 = 0.976
     e =     8.79255 eV
     psi = 0.213*[#   1]+0.213*[#   5]+0.083*[#   2]+0.083*[#   3]+0.083*[#   4]+
          +0.083*[#   6]+0.083*[#   7]+0.083*[#   8]+
    |psi|^2 = 0.925
     e =    10.63802 eV
     psi = 0.159*[#   2]+0.159*[#   3]+0.159*[#   4]+0.159*[#   6]+0.159*[#   7]+
          +0.159*[#   8]+
    |psi|^2 = 0.953
     e =    10.63802 eV
     psi = 0.159*[#   2]+0.159*[#   3]+0.159*[#   4]+0.159*[#   6]+0.159*[#   7]+
          +0.159*[#   8]+
    |psi|^2 = 0.953
     e =    12.70115 eV
     psi = 0.024*[#   1]+0.024*[#   5]+0.004*[#   2]+0.004*[#   3]+0.004*[#   4]+
          +0.004*[#   6]+0.004*[#   7]+0.004*[#   8]+
    |psi|^2 = 0.073
     e =    14.99180 eV
     psi = 0.001*[#   1]+0.001*[#   5]+
    |psi|^2 = 0.003
     e =    16.05546 eV
     psi = 
    |psi|^2 = 0.000
     e =    18.24356 eV
     psi = 
    |psi|^2 = 0.003
     e =    18.24356 eV
     psi = 
    |psi|^2 = 0.003
     e =    18.99298 eV
     psi = 
    |psi|^2 = 0.001
     e =    24.56552 eV
     psi = 
    |psi|^2 = 0.004
     e =    25.78555 eV
     psi = 0.006*[#   2]+0.006*[#   3]+0.006*[#   4]+0.006*[#   6]+0.006*[#   7]+
          +0.006*[#   8]+
    |psi|^2 = 0.033

 k =   0.0000000000  0.0000000000  0.0734121547
     e =    -6.85881 eV
     psi = 0.374*[#   1]+0.374*[#   5]+0.041*[#   2]+0.041*[#   3]+0.041*[#   4]+
          +0.041*[#   6]+0.041*[#   7]+0.041*[#   8]+
    |psi|^2 = 0.997
     e =     1.75224 eV
     psi = 0.266*[#   1]+0.266*[#   5]+0.077*[#   2]+0.077*[#   3]+0.077*[#   4]+
          +0.077*[#   6]+0.077*[#   7]+0.077*[#   8]+
    |psi|^2 = 0.995
     e =     3.78016 eV
     psi = 0.166*[#   2]+0.166*[#   3]+0.166*[#   4]+0.166*[#   6]+0.166*[#   7]+
          +0.166*[#   8]+
    |psi|^2 = 0.996
     e =     3.78016 eV
     psi = 0.166*[#   2]+0.166*[#   3]+0.166*[#   4]+0.166*[#   6]+0.166*[#   7]+
          +0.166*[#   8]+
    |psi|^2 = 0.996
     e =     6.88343 eV
     psi = 0.122*[#   2]+0.122*[#   3]+0.122*[#   4]+0.122*[#   6]+0.122*[#   7]+
          +0.122*[#   8]+0.121*[#   1]+0.121*[#   5]+
    |psi|^2 = 0.975
     e =     8.81350 eV
     psi = 0.199*[#   1]+0.199*[#   5]+0.081*[#   2]+0.081*[#   3]+0.081*[#   4]+
          +0.081*[#   6]+0.081*[#   7]+0.081*[#   8]+
    |psi|^2 = 0.886
     e =    10.94589 eV
     psi = 0.158*[#   2]+0.158*[#   3]+0.158*[#   4]+0.158*[#   6]+0.158*[#   7]+
          +0.158*[#   8]+
    |psi|^2 = 0.948
     e =    10.94589 eV
     psi = 0.158*[#   2]+0.158*[#   3]+0.158*[#   4]+0.158*[#   6]+0.158*[#   7]+
          +0.158*[#   8]+
    |psi|^2 = 0.948
     e =    12.71755 eV
     psi = 0.034*[#   1]+0.034*[#   5]+0.007*[#   2]+0.007*[#   3]+0.007*[#   4]+
          +0.007*[#   6]+0.007*[#   7]+0.007*[#   8]+
    |psi|^2 = 0.112
     e =    15.35578 eV
     psi = 
    |psi|^2 = 0.003
     e =    16.18256 eV
     psi = 
    |psi|^2 = 0.000
     e =    18.48128 eV
     psi = 
    |psi|^2 = 0.003
     e =    18.48128 eV
     psi = 
    |psi|^2 = 0.003
     e =    19.20633 eV
     psi = 
    |psi|^2 = 0.001
     e =    25.24178 eV
     psi = 
    |psi|^2 = 0.003
     e =    25.27137 eV
     psi = 0.006*[#   2]+0.006*[#   3]+0.006*[#   4]+0.006*[#   6]+0.006*[#   7]+
          +0.006*[#   8]+
    |psi|^2 = 0.037

 k =   0.0000000000  0.0000000000  0.0795298343
     e =    -6.79438 eV
     psi = 0.364*[#   1]+0.364*[#   5]+0.045*[#   2]+0.045*[#   3]+0.045*[#   4]+
          +0.045*[#   6]+0.045*[#   7]+0.045*[#   8]+
    |psi|^2 = 0.997
     e =     1.42202 eV
     psi = 0.270*[#   1]+0.270*[#   5]+0.076*[#   2]+0.076*[#   3]+0.076*[#   4]+
          +0.076*[#   6]+0.076*[#   7]+0.076*[#   8]+
    |psi|^2 = 0.995
     e =     3.61246 eV
     psi = 0.166*[#   2]+0.166*[#   3]+0.166*[#   4]+0.166*[#   6]+0.166*[#   7]+
          +0.166*[#   8]+
    |psi|^2 = 0.996
     e =     3.61246 eV
     psi = 0.166*[#   2]+0.166*[#   3]+0.166*[#   4]+0.166*[#   6]+0.166*[#   7]+
          +0.166*[#   8]+
    |psi|^2 = 0.996
     e =     6.75567 eV
     psi = 0.131*[#   1]+0.131*[#   5]+0.119*[#   2]+0.119*[#   3]+0.119*[#   4]+
          +0.119*[#   6]+0.119*[#   7]+0.119*[#   8]+
    |psi|^2 = 0.974
     e =     8.76944 eV
[...]
    |psi|^2 = 0.996
     e =     2.57592 eV
     psi = 0.166*[#   2]+0.166*[#   3]+0.166*[#   4]+0.166*[#   6]+0.166*[#   7]+
          +0.166*[#   8]+
    |psi|^2 = 0.997
     e =     2.57592 eV
     psi = 0.166*[#   2]+0.166*[#   3]+0.166*[#   4]+0.166*[#   6]+0.166*[#   7]+
          +0.166*[#   8]+
    |psi|^2 = 0.997
     e =     6.14385 eV
     psi = 0.176*[#   1]+0.176*[#   5]+0.100*[#   2]+0.100*[#   3]+0.100*[#   4]+
          +0.100*[#   6]+0.100*[#   7]+0.100*[#   8]+
    |psi|^2 = 0.954
     e =     7.44998 eV
     psi = 0.153*[#   1]+0.153*[#   5]+0.078*[#   2]+0.078*[#   3]+0.078*[#   4]+
          +0.078*[#   6]+0.078*[#   7]+0.078*[#   8]+
    |psi|^2 = 0.776
     e =    13.79751 eV
     psi = 0.149*[#   2]+0.149*[#   3]+0.149*[#   4]+0.149*[#   6]+0.149*[#   7]+
          +0.149*[#   8]+
    |psi|^2 = 0.894
     e =    13.79751 eV
     psi = 0.149*[#   2]+0.149*[#   3]+0.149*[#   4]+0.149*[#   6]+0.149*[#   7]+
          +0.149*[#   8]+
    |psi|^2 = 0.894
     e =    15.08290 eV
     psi = 0.058*[#   1]+0.058*[#   5]+0.018*[#   2]+0.018*[#   3]+0.018*[#   4]+
          +0.018*[#   6]+0.018*[#   7]+0.018*[#   8]+
    |psi|^2 = 0.220
     e =    17.82453 eV
     psi = 
    |psi|^2 = 0.000
     e =    18.46333 eV
     psi = 0.005*[#   1]+0.005*[#   5]+
    |psi|^2 = 0.010
     e =    21.00930 eV
     psi = 0.010*[#   2]+0.010*[#   3]+0.010*[#   4]+0.010*[#   6]+0.010*[#   7]+
          +0.010*[#   8]+
    |psi|^2 = 0.063
     e =    21.00930 eV
     psi = 0.010*[#   2]+0.010*[#   3]+0.010*[#   4]+0.010*[#   6]+0.010*[#   7]+
          +0.010*[#   8]+
    |psi|^2 = 0.063
     e =    21.63897 eV
     psi = 0.003*[#   2]+0.003*[#   3]+0.003*[#   4]+0.003*[#   6]+0.003*[#   7]+
          +0.003*[#   8]+
    |psi|^2 = 0.016
     e =    21.63897 eV
     psi = 0.003*[#   2]+0.003*[#   3]+0.003*[#   4]+0.003*[#   6]+0.003*[#   7]+
          +0.003*[#   8]+
    |psi|^2 = 0.016
     e =    21.90891 eV
     psi = 
    |psi|^2 = 0.002

 k =   0.0000000000  0.0000000000  0.1345889503
     e =    -5.42885 eV
     psi = 0.309*[#   1]+0.309*[#   5]+0.063*[#   2]+0.063*[#   3]+0.063*[#   4]+
          +0.063*[#   6]+0.063*[#   7]+0.063*[#   8]+
    |psi|^2 = 0.996
     e =    -1.47520 eV
     psi = 0.290*[#   1]+0.290*[#   5]+0.069*[#   2]+0.069*[#   3]+0.069*[#   4]+
          +0.069*[#   6]+0.069*[#   7]+0.069*[#   8]+
    |psi|^2 = 0.996
     e =     2.49078 eV
     psi = 0.166*[#   2]+0.166*[#   3]+0.166*[#   4]+0.166*[#   6]+0.166*[#   7]+
          +0.166*[#   8]+
    |psi|^2 = 0.997
     e =     2.49078 eV
     psi = 0.166*[#   2]+0.166*[#   3]+0.166*[#   4]+0.166*[#   6]+0.166*[#   7]+
          +0.166*[#   8]+
    |psi|^2 = 0.997
     e =     6.12608 eV
     psi = 0.178*[#   1]+0.178*[#   5]+0.099*[#   2]+0.099*[#   3]+0.099*[#   4]+
          +0.099*[#   6]+0.099*[#   7]+0.099*[#   8]+
    |psi|^2 = 0.950
     e =     7.27854 eV
     psi = 0.155*[#   1]+0.155*[#   5]+0.080*[#   2]+0.080*[#   3]+0.080*[#   4]+
          +0.080*[#   6]+0.080*[#   7]+0.080*[#   8]+
    |psi|^2 = 0.791
     e =    14.10422 eV
     psi = 0.149*[#   2]+0.149*[#   3]+0.149*[#   4]+0.149*[#   6]+0.149*[#   7]+
          +0.149*[#   8]+
    |psi|^2 = 0.892
     e =    14.10422 eV
     psi = 0.149*[#   2]+0.149*[#   3]+0.149*[#   4]+0.149*[#   6]+0.149*[#   7]+
          +0.149*[#   8]+
    |psi|^2 = 0.892
     e =    15.43023 eV
     psi = 0.054*[#   1]+0.054*[#   5]+0.016*[#   2]+0.016*[#   3]+0.016*[#   4]+
          +0.016*[#   6]+0.016*[#   7]+0.016*[#   8]+
    |psi|^2 = 0.204
     e =    18.06177 eV
     psi = 
    |psi|^2 = 0.000
     e =    18.63275 eV
     psi = 0.006*[#   1]+0.006*[#   5]+
    |psi|^2 = 0.015
     e =    20.65279 eV
     psi = 0.012*[#   2]+0.012*[#   3]+0.012*[#   4]+0.012*[#   6]+0.012*[#   7]+
          +0.012*[#   8]+
    |psi|^2 = 0.073
     e =    20.65279 eV
     psi = 0.012*[#   2]+0.012*[#   3]+0.012*[#   4]+0.012*[#   6]+0.012*[#   7]+
          +0.012*[#   8]+
    |psi|^2 = 0.073
     e =    22.03935 eV
     psi = 0.001*[#   2]+0.001*[#   3]+0.001*[#   4]+0.001*[#   6]+0.001*[#   7]+
          +0.001*[#   8]+
    |psi|^2 = 0.007
     e =    22.03935 eV
     psi = 0.001*[#   2]+0.001*[#   3]+0.001*[#   4]+0.001*[#   6]+0.001*[#   7]+
          +0.001*[#   8]+
    |psi|^2 = 0.007
     e =    22.30600 eV
     psi = 
    |psi|^2 = 0.002

 k =   0.0000000000  0.0000000000  0.1407066299
     e =    -5.19728 eV
     psi = 0.306*[#   1]+0.306*[#   5]+0.064*[#   2]+0.064*[#   3]+0.064*[#   4]+
          +0.064*[#   6]+0.064*[#   7]+0.064*[#   8]+
    |psi|^2 = 0.996
     e =    -1.78746 eV
     psi = 0.291*[#   1]+0.291*[#   5]+0.069*[#   2]+0.069*[#   3]+0.069*[#   4]+
          +0.069*[#   6]+0.069*[#   7]+0.069*[#   8]+
    |psi|^2 = 0.996
     e =     2.41653 eV
     psi = 0.166*[#   2]+0.166*[#   3]+0.166*[#   4]+0.166*[#   6]+0.166*[#   7]+
          +0.166*[#   8]+
    |psi|^2 = 0.997
     e =     2.41653 eV
     psi = 0.166*[#   2]+0.166*[#   3]+0.166*[#   4]+0.166*[#   6]+0.166*[#   7]+
          +0.166*[#   8]+
    |psi|^2 = 0.997
     e =     6.12211 eV
     psi = 0.179*[#   1]+0.179*[#   5]+0.098*[#   2]+0.098*[#   3]+0.098*[#   4]+
          +0.098*[#   6]+0.098*[#   7]+0.098*[#   8]+
    |psi|^2 = 0.945
     e =     7.11658 eV
     psi = 0.158*[#   1]+0.158*[#   5]+0.082*[#   2]+0.082*[#   3]+0.082*[#   4]+
          +0.082*[#   6]+0.082*[#   7]+0.082*[#   8]+
    |psi|^2 = 0.807
     e =    14.40196 eV
     psi = 0.149*[#   2]+0.149*[#   3]+0.149*[#   4]+0.149*[#   6]+0.149*[#   7]+
          +0.149*[#   8]+
    |psi|^2 = 0.893
     e =    14.40196 eV
     psi = 0.149*[#   2]+0.149*[#   3]+0.149*[#   4]+0.149*[#   6]+0.149*[#   7]+
          +0.149*[#   8]+
    |psi|^2 = 0.893
     e =    15.77839 eV
     psi = 0.050*[#   1]+0.050*[#   5]+0.015*[#   2]+0.015*[#   3]+0.015*[#   4]+
          +0.015*[#   6]+0.015*[#   7]+0.015*[#   8]+
    |psi|^2 = 0.187
     e =    18.31038 eV
     psi = 
    |psi|^2 = 0.000
     e =    18.71964 eV
     psi = 0.009*[#   1]+0.009*[#   5]+
    |psi|^2 = 0.022
     e =    20.28759 eV
     psi = 0.012*[#   2]+0.012*[#   3]+0.012*[#   4]+0.012*[#   6]+0.012*[#   7]+
          +0.012*[#   8]+
    |psi|^2 = 0.072
     e =    20.28759 eV
     psi = 0.012*[#   2]+0.012*[#   3]+0.012*[#   4]+0.012*[#   6]+0.012*[#   7]+
          +0.012*[#   8]+
    |psi|^2 = 0.072
     e =    22.14391 eV
     psi = 
    |psi|^2 = 0.000
     e =    22.48899 eV
     psi = 
    |psi|^2 = 0.005
     e =    22.48899 eV
     psi = 
    |psi|^2 = 0.005

 k =   0.0000000000  0.0000000000  0.1468243094
     e =    -4.95360 eV
     psi = 0.304*[#   1]+0.304*[#   5]+0.065*[#   2]+0.065*[#   3]+0.065*[#   4]+
          +0.065*[#   6]+0.065*[#   7]+0.065*[#   8]+
    |psi|^2 = 0.996
     e =    -2.09723 eV
     psi = 0.292*[#   1]+0.292*[#   5]+0.068*[#   2]+0.068*[#   3]+0.068*[#   4]+
          +0.068*[#   6]+0.068*[#   7]+0.068*[#   8]+
    |psi|^2 = 0.996
     e =     2.35332 eV
     psi = 0.166*[#   2]+0.166*[#   3]+0.166*[#   4]+0.166*[#   6]+0.166*[#   7]+
          +0.166*[#   8]+
    |psi|^2 = 0.997
     e =     2.35332 eV
     psi = 0.166*[#   2]+0.166*[#   3]+0.166*[#   4]+0.166*[#   6]+0.166*[#   7]+
          +0.166*[#   8]+
    |psi|^2 = 0.997
     e =     6.13196 eV
     psi = 0.179*[#   1]+0.179*[#   5]+0.097*[#   2]+0.097*[#   3]+0.097*[#   4]+
          +0.097*[#   6]+0.097*[#   7]+0.097*[#   8]+
    |psi|^2 = 0.939
     e =     6.96507 eV
     psi = 0.160*[#   1]+0.160*[#   5]+0.084*[#   2]+0.084*[#   3]+0.084*[#   4]+
          +0.084*[#   6]+0.084*[#   7]+0.084*[#   8]+
    |psi|^2 = 0.824
     e =    14.68599 eV
     psi = 0.150*[#   2]+0.150*[#   3]+0.150*[#   4]+0.150*[#   6]+0.150*[#   7]+
          +0.150*[#   8]+
    |psi|^2 = 0.898
     e =    14.68599 eV
     psi = 0.150*[#   2]+0.150*[#   3]+0.150*[#   4]+0.150*[#   6]+0.150*[#   7]+
          +0.150*[#   8]+
    |psi|^2 = 0.898
     e =    16.12522 eV
     psi = 0.045*[#   1]+0.045*[#   5]+0.013*[#   2]+0.013*[#   3]+0.013*[#   4]+
          +0.013*[#   6]+0.013*[#   7]+0.013*[#   8]+
    |psi|^2 = 0.169
     e =    18.57091 eV
     psi = 
    |psi|^2 = 0.000
     e =    18.71949 eV
     psi = 0.011*[#   1]+0.011*[#   5]+0.001*[#   2]+0.001*[#   3]+0.001*[#   4]+
          +0.001*[#   6]+0.001*[#   7]+0.001*[#   8]+
    |psi|^2 = 0.030
     e =    19.94223 eV
     psi = 0.011*[#   2]+0.011*[#   3]+0.011*[#   4]+0.011*[#   6]+0.011*[#   7]+
          +0.011*[#   8]+
    |psi|^2 = 0.066
     e =    19.94223 eV
     psi = 0.011*[#   2]+0.011*[#   3]+0.011*[#   4]+0.011*[#   6]+0.011*[#   7]+
          +0.011*[#   8]+
    |psi|^2 = 0.066
     e =    21.76525 eV
     psi = 
    |psi|^2 = 0.000
     e =    22.96208 eV
     psi = 
    |psi|^2 = 0.005
     e =    22.96208 eV
     psi = 
    |psi|^2 = 0.005

 k =   0.0000000000  0.0000000000  0.1529419890
     e =    -4.69904 eV
     psi = 0.302*[#   1]+0.302*[#   5]+0.065*[#   2]+0.065*[#   3]+0.065*[#   4]+
          +0.065*[#   6]+0.065*[#   7]+0.065*[#   8]+
    |psi|^2 = 0.996
     e =    -2.40428 eV
     psi = 0.293*[#   1]+0.293*[#   5]+0.068*[#   2]+0.068*[#   3]+0.068*[#   4]+
          +0.068*[#   6]+0.068*[#   7]+0.068*[#   8]+
    |psi|^2 = 0.996
     e =     2.30136 eV
     psi = 0.166*[#   2]+0.166*[#   3]+0.166*[#   4]+0.166*[#   6]+0.166*[#   7]+
          +0.166*[#   8]+
    |psi|^2 = 0.997
     e =     2.30136 eV
     psi = 0.166*[#   2]+0.166*[#   3]+0.166*[#   4]+0.166*[#   6]+0.166*[#   7]+
          +0.166*[#   8]+
    |psi|^2 = 0.997
     e =     6.15561 eV
     psi = 0.179*[#   1]+0.179*[#   5]+0.096*[#   2]+0.096*[#   3]+0.096*[#   4]+
          +0.096*[#   6]+0.096*[#   7]+0.096*[#   8]+
    |psi|^2 = 0.933
     e =     6.82478 eV
     psi = 0.163*[#   1]+0.163*[#   5]+0.086*[#   2]+0.086*[#   3]+0.086*[#   4]+
          +0.086*[#   6]+0.086*[#   7]+0.086*[#   8]+
    |psi|^2 = 0.840
     e =    14.94806 eV
     psi = 0.151*[#   2]+0.151*[#   3]+0.151*[#   4]+0.151*[#   6]+0.151*[#   7]+
          +0.151*[#   8]+
    |psi|^2 = 0.908
     e =    14.94806 eV
     psi = 0.151*[#   2]+0.151*[#   3]+0.151*[#   4]+0.151*[#   6]+0.151*[#   7]+
          +0.151*[#   8]+
    |psi|^2 = 0.908
     e =    16.46845 eV
     psi = 0.041*[#   1]+0.041*[#   5]+0.012*[#   2]+0.012*[#   3]+0.012*[#   4]+
          +0.012*[#   6]+0.012*[#   7]+0.012*[#   8]+
    |psi|^2 = 0.152
     e =    18.63757 eV
     psi = 0.014*[#   1]+0.014*[#   5]+0.002*[#   2]+0.002*[#   3]+0.002*[#   4]+
          +0.002*[#   6]+0.002*[#   7]+0.002*[#   8]+
    |psi|^2 = 0.040
     e =    18.84101 eV
     psi = 
    |psi|^2 = 0.000
     e =    19.62772 eV
     psi = 0.009*[#   2]+0.009*[#   3]+0.009*[#   4]+0.009*[#   6]+0.009*[#   7]+
          +0.009*[#   8]+
    |psi|^2 = 0.056
     e =    19.62772 eV
     psi = 0.009*[#   2]+0.009*[#   3]+0.009*[#   4]+0.009*[#   6]+0.009*[#   7]+
          +0.009*[#   8]+
    |psi|^2 = 0.056
     e =    21.39734 eV
     psi = 
    |psi|^2 = 0.000
     e =    23.45435 eV
     psi = 
    |psi|^2 = 0.005
     e =    23.45435 eV
     psi = 
    |psi|^2 = 0.005

 k =   0.0000000000  0.0000000000  0.1590596685
     e =    -4.43493 eV
     psi = 0.300*[#   1]+0.300*[#   5]+0.066*[#   2]+0.066*[#   3]+0.066*[#   4]+
          +0.066*[#   6]+0.066*[#   7]+0.066*[#   8]+
    |psi|^2 = 0.996
     e =    -2.70821 eV
     psi = 0.294*[#   1]+0.294*[#   5]+0.068*[#   2]+0.068*[#   3]+0.068*[#   4]+
          +0.068*[#   6]+0.068*[#   7]+0.068*[#   8]+
    |psi|^2 = 0.996
     e =     2.26079 eV
     psi = 0.166*[#   2]+0.166*[#   3]+0.166*[#   4]+0.166*[#   6]+0.166*[#   7]+
          +0.166*[#   8]+
    |psi|^2 = 0.997
     e =     2.26079 eV
     psi = 0.166*[#   2]+0.166*[#   3]+0.166*[#   4]+0.166*[#   6]+0.166*[#   7]+
          +0.166*[#   8]+
    |psi|^2 = 0.997
     e =     6.19292 eV
     psi = 0.178*[#   1]+0.178*[#   5]+0.095*[#   2]+0.095*[#   3]+0.095*[#   4]+
          +0.095*[#   6]+0.095*[#   7]+0.095*[#   8]+
    |psi|^2 = 0.925
     e =     6.69631 eV
     psi = 0.166*[#   1]+0.166*[#   5]+0.087*[#   2]+0.087*[#   3]+0.087*[#   4]+
          +0.087*[#   6]+0.087*[#   7]+0.087*[#   8]+
    |psi|^2 = 0.856
     e =    15.17844 eV
     psi = 0.154*[#   2]+0.154*[#   3]+0.154*[#   4]+0.154*[#   6]+0.154*[#   7]+
          +0.154*[#   8]+
    |psi|^2 = 0.922
     e =    15.17844 eV
     psi = 0.154*[#   2]+0.154*[#   3]+0.154*[#   4]+0.154*[#   6]+0.154*[#   7]+
          +0.154*[#   8]+
    |psi|^2 = 0.922
     e =    16.80591 eV
     psi = 0.037*[#   1]+0.037*[#   5]+0.010*[#   2]+0.010*[#   3]+0.010*[#   4]+
          +0.010*[#   6]+0.010*[#   7]+0.010*[#   8]+
    |psi|^2 = 0.135
     e =    18.48609 eV
     psi = 0.017*[#   1]+0.017*[#   5]+0.003*[#   2]+0.003*[#   3]+0.003*[#   4]+
          +0.003*[#   6]+0.003*[#   7]+0.003*[#   8]+
    |psi|^2 = 0.051
     e =    19.12206 eV
     psi = 
    |psi|^2 = 0.000
     e =    19.35574 eV
     psi = 0.007*[#   2]+0.007*[#   3]+0.007*[#   4]+0.007*[#   6]+0.007*[#   7]+
          +0.007*[#   8]+
    |psi|^2 = 0.041
     e =    19.35574 eV
     psi = 0.007*[#   2]+0.007*[#   3]+0.007*[#   4]+0.007*[#   6]+0.007*[#   7]+
          +0.007*[#   8]+
    |psi|^2 = 0.041
     e =    21.04023 eV
     psi = 
    |psi|^2 = 0.000
     e =    23.96282 eV
     psi = 
    |psi|^2 = 0.005
     e =    23.96282 eV
     psi = 
    |psi|^2 = 0.005

 k =   0.0000000000  0.0000000000  0.1651773481
     e =    -4.16242 eV
     psi = 0.299*[#   1]+0.299*[#   5]+0.066*[#   2]+0.066*[#   3]+0.066*[#   4]+
          +0.066*[#   6]+0.066*[#   7]+0.066*[#   8]+
    |psi|^2 = 0.996
     e =    -3.00861 eV
     psi = 0.295*[#   1]+0.295*[#   5]+0.067*[#   2]+0.067*[#   3]+0.067*[#   4]+
          +0.067*[#   6]+0.067*[#   7]+0.067*[#   8]+
    |psi|^2 = 0.996
     e =     2.23172 eV
     psi = 0.166*[#   2]+0.166*[#   3]+0.166*[#   4]+0.166*[#   6]+0.166*[#   7]+
          +0.166*[#   8]+
    |psi|^2 = 0.997
     e =     2.23172 eV
     psi = 0.166*[#   2]+0.166*[#   3]+0.166*[#   4]+0.166*[#   6]+0.166*[#   7]+
          +0.166*[#   8]+
    |psi|^2 = 0.997
     e =     6.24383 eV
     psi = 0.177*[#   1]+0.177*[#   5]+0.094*[#   2]+0.094*[#   3]+0.094*[#   4]+
          +0.094*[#   6]+0.094*[#   7]+0.094*[#   8]+
    |psi|^2 = 0.917
     e =     6.58008 eV
     psi = 0.169*[#   1]+0.169*[#   5]+0.089*[#   2]+0.089*[#   3]+0.089*[#   4]+
          +0.089*[#   6]+0.089*[#   7]+0.089*[#   8]+
    |psi|^2 = 0.871
     e =    15.36274 eV
     psi = 0.156*[#   2]+0.156*[#   3]+0.156*[#   4]+0.156*[#   6]+0.156*[#   7]+
          +0.156*[#   8]+
    |psi|^2 = 0.939
     e =    15.36274 eV
     psi = 0.156*[#   2]+0.156*[#   3]+0.156*[#   4]+0.156*[#   6]+0.156*[#   7]+
          +0.156*[#   8]+
    |psi|^2 = 0.939
     e =    17.13488 eV
     psi = 0.033*[#   1]+0.033*[#   5]+0.009*[#   2]+0.009*[#   3]+0.009*[#   4]+
          +0.009*[#   6]+0.009*[#   7]+0.009*[#   8]+
    |psi|^2 = 0.118
     e =    18.27968 eV
     psi = 0.020*[#   1]+0.020*[#   5]+0.004*[#   2]+0.004*[#   3]+0.004*[#   4]+
          +0.004*[#   6]+0.004*[#   7]+0.004*[#   8]+
    |psi|^2 = 0.062
     e =    19.14095 eV
     psi = 0.004*[#   2]+0.004*[#   3]+0.004*[#   4]+0.004*[#   6]+0.004*[#   7]+
          +0.004*[#   8]+
    |psi|^2 = 0.023
     e =    19.14095 eV
     psi = 0.004*[#   2]+0.004*[#   3]+0.004*[#   4]+0.004*[#   6]+0.004*[#   7]+
          +0.004*[#   8]+
    |psi|^2 = 0.023
     e =    19.41396 eV
     psi = 
    |psi|^2 = 0.000
     e =    20.69393 eV
     psi = 
    |psi|^2 = 0.000
     e =    24.48484 eV
     psi = 
    |psi|^2 = 0.005
     e =    24.48484 eV
     psi = 
    |psi|^2 = 0.005

 k =   0.0000000000  0.0000000000  0.1712950277
     e =    -3.88262 eV
     psi = 0.298*[#   1]+0.298*[#   5]+0.067*[#   2]+0.067*[#   3]+0.067*[#   4]+
          +0.067*[#   6]+0.067*[#   7]+0.067*[#   8]+
    |psi|^2 = 0.996
     e =    -3.30491 eV
     psi = 0.296*[#   1]+0.296*[#   5]+0.067*[#   2]+0.067*[#   3]+0.067*[#   4]+
          +0.067*[#   6]+0.067*[#   7]+0.067*[#   8]+
    |psi|^2 = 0.996
     e =     2.21425 eV
     psi = 0.166*[#   2]+0.166*[#   3]+0.166*[#   4]+0.166*[#   6]+0.166*[#   7]+
          +0.166*[#   8]+
    |psi|^2 = 0.997
     e =     2.21425 eV
     psi = 0.166*[#   2]+0.166*[#   3]+0.166*[#   4]+0.166*[#   6]+0.166*[#   7]+
          +0.166*[#   8]+
    |psi|^2 = 0.997
     e =     6.30801 eV
     psi = 0.176*[#   1]+0.176*[#   5]+0.093*[#   2]+0.093*[#   3]+0.093*[#   4]+
          +0.093*[#   6]+0.093*[#   7]+0.093*[#   8]+
    |psi|^2 = 0.907
     e =     6.47643 eV
     psi = 0.172*[#   1]+0.172*[#   5]+0.090*[#   2]+0.090*[#   3]+0.090*[#   4]+
          +0.090*[#   6]+0.090*[#   7]+0.090*[#   8]+
    |psi|^2 = 0.884
     e =    15.48395 eV
     psi = 0.159*[#   2]+0.159*[#   3]+0.159*[#   4]+0.159*[#   6]+0.159*[#   7]+
          +0.159*[#   8]+
    |psi|^2 = 0.953
     e =    15.48395 eV
     psi = 0.159*[#   2]+0.159*[#   3]+0.159*[#   4]+0.159*[#   6]+0.159*[#   7]+
          +0.159*[#   8]+
    |psi|^2 = 0.953
     e =    17.45208 eV
     psi = 0.030*[#   1]+0.030*[#   5]+0.007*[#   2]+0.007*[#   3]+0.007*[#   4]+
          +0.007*[#   6]+0.007*[#   7]+0.007*[#   8]+
    |psi|^2 = 0.103
     e =    18.03172 eV
     psi = 0.023*[#   1]+0.023*[#   5]+0.005*[#   2]+0.005*[#   3]+0.005*[#   4]+
          +0.005*[#   6]+0.005*[#   7]+0.005*[#   8]+
    |psi|^2 = 0.075
     e =    19.00106 eV
     psi = 0.001*[#   2]+0.001*[#   3]+0.001*[#   4]+0.001*[#   6]+0.001*[#   7]+
          +0.001*[#   8]+
    |psi|^2 = 0.008
     e =    19.00106 eV
     psi = 0.001*[#   2]+0.001*[#   3]+0.001*[#   4]+0.001*[#   6]+0.001*[#   7]+
          +0.001*[#   8]+
    |psi|^2 = 0.008
     e =    19.71541 eV
     psi = 
    |psi|^2 = 0.000
     e =    20.35538 eV
     psi = 
    |psi|^2 = 0.000
     e =    25.00967 eV
     psi = 
    |psi|^2 = 0.004
     e =    25.00967 eV
     psi = 
    |psi|^2 = 0.004

 k =   0.0000000000  0.0000000000  0.1774127072
     e =    -3.59655 eV
     psi = 0.594*[#   1]+0.134*[#   6]+0.134*[#   7]+0.134*[#   8]+
    |psi|^2 = 0.996
     e =    -3.59648 eV
     psi = 0.594*[#   5]+0.134*[#   2]+0.134*[#   3]+0.134*[#   4]+
    |psi|^2 = 0.996
     e =     2.20840 eV
     psi = 0.166*[#   2]+0.166*[#   3]+0.166*[#   4]+0.166*[#   6]+0.166*[#   7]+
          +0.166*[#   8]+
    |psi|^2 = 0.997
     e =     2.20840 eV
     psi = 0.166*[#   2]+0.166*[#   3]+0.166*[#   4]+0.166*[#   6]+0.166*[#   7]+
          +0.166*[#   8]+
    |psi|^2 = 0.997
     e =     6.38563 eV
     psi = 0.348*[#   5]+0.183*[#   2]+0.183*[#   3]+0.183*[#   4]+
    |psi|^2 = 0.896
     e =     6.38564 eV
     psi = 0.348*[#   1]+0.183*[#   6]+0.183*[#   7]+0.183*[#   8]+
    |psi|^2 = 0.896
     e =    15.52629 eV
     psi = 0.160*[#   2]+0.160*[#   3]+0.160*[#   4]+0.160*[#   6]+0.160*[#   7]+
          +0.160*[#   8]+
    |psi|^2 = 0.959
     e =    15.52629 eV
     psi = 0.160*[#   2]+0.160*[#   3]+0.160*[#   4]+0.160*[#   6]+0.160*[#   7]+
          +0.160*[#   8]+
    |psi|^2 = 0.959
     e =    17.75296 eV
     psi = 0.052*[#   5]+0.012*[#   2]+0.012*[#   3]+0.012*[#   4]+
    |psi|^2 = 0.088
     e =    17.75301 eV
     psi = 0.052*[#   1]+0.012*[#   6]+0.012*[#   7]+0.012*[#   8]+
    |psi|^2 = 0.088
     e =    18.95036 eV
     psi = 
    |psi|^2 = 0.002
     e =    18.95036 eV
     psi = 
    |psi|^2 = 0.002
     e =    20.02897 eV
     psi = 
    |psi|^2 = 0.000
     e =    20.02900 eV
     psi = 
    |psi|^2 = 0.000
     e =    25.39016 eV
     psi = 
    |psi|^2 = 0.000
     e =    25.39017 eV
     psi = 
    |psi|^2 = 0.000

Lowdin Charges: 

     Atom #   1: total charge =   3.9776, s =  1.2113, p =  2.7663, 
     Atom #   2: total charge =   3.9775, s =  1.2113, p =  2.7662, 
     Spilling Parameter:   0.0056
 
     PROJWFC      :     1.04s CPU        10.43s WALL

 
   This run was terminated on:  11: 3:36  16Apr2019            

=------------------------------------------------------------------------------=
   JOB DONE.
=------------------------------------------------------------------------------=
